# Forces      
# CofR        : (0.0000000e+00 0.0000000e+00 0.0000000e+00)
# Time        forces(pressure viscous porous)	moments(pressure viscous porous)
0.001         	((4.4994308e+02 -4.0529512e+02 -1.2892603e-15) (3.6394895e-03 -1.8218458e-04 -2.5585061e-03) (0.0000000e+00 0.0000000e+00 0.0000000e+00)) ((-1.9951313e+02 -1.5938041e+02 -1.2706554e-02) (-2.4320820e-04 -1.1441758e-03 -3.4864712e-04) (0.0000000e+00 0.0000000e+00 0.0000000e+00))
0.002         	((2.6062495e+00 -5.4453432e+02 -1.3311942e-15) (3.4047569e-03 -2.1165662e-04 -2.5632927e-03) (0.0000000e+00 0.0000000e+00 0.0000000e+00)) ((-2.5166985e+02 -4.5346892e-01 -7.3343404e-05) (-2.5358694e-04 -1.0705238e-03 -3.4852375e-04) (0.0000000e+00 0.0000000e+00 0.0000000e+00))
0.003         	((-2.8636544e+00 -5.4486602e+02 -1.3254608e-15) (3.2835702e-03 -2.2682484e-04 -2.5677617e-03) (0.0000000e+00 0.0000000e+00 0.0000000e+00)) ((-2.5180674e+02 1.1961860e+00 8.1100937e-05) (-2.5916083e-04 -1.0318943e-03 -3.4705840e-04) (0.0000000e+00 0.0000000e+00 0.0000000e+00))
0.004         	((-5.9917627e+00 -5.4518565e+02 -1.3235035e-15) (3.2263004e-03 -2.3150138e-04 -2.5719572e-03) (0.0000000e+00 0.0000000e+00 0.0000000e+00)) ((-2.5192785e+02 2.2020117e+00 1.7149861e-04) (-2.6093177e-04 -1.0141367e-03 -3.4485017e-04) (0.0000000e+00 0.0000000e+00 0.0000000e+00))
0.005         	((-6.3502666e+00 -5.4511068e+02 -1.3235415e-15) (3.1809856e-03 -2.3493735e-04 -2.5761249e-03) (0.0000000e+00 0.0000000e+00 0.0000000e+00)) ((-2.5190048e+02 2.3034558e+00 1.8238111e-04) (-2.6227665e-04 -1.0001973e-03 -3.4256045e-04) (0.0000000e+00 0.0000000e+00 0.0000000e+00))
0.006         	((-6.4287228e+00 -5.4502226e+02 -1.3240952e-15) (3.1414524e-03 -2.3759783e-04 -2.5802601e-03) (0.0000000e+00 0.0000000e+00 0.0000000e+00)) ((-2.5186844e+02 2.3180051e+00 1.8442829e-04) (-2.6335968e-04 -9.8806449e-04 -3.4026964e-04) (0.0000000e+00 0.0000000e+00 0.0000000e+00))
0.007         	((-6.4595849e+00 -5.4492979e+02 -1.3248211e-15) (3.1057394e-03 -2.3978130e-04 -2.5843684e-03) (0.0000000e+00 0.0000000e+00 0.0000000e+00)) ((-2.5183556e+02 2.3215174e+00 1.8522730e-04) (-2.6428298e-04 -9.7713006e-04 -3.3798486e-04) (0.0000000e+00 0.0000000e+00 0.0000000e+00))
0.008         	((-6.4755535e+00 -5.4483516e+02 -1.3255345e-15) (3.0727594e-03 -2.4164372e-04 -2.5884542e-03) (0.0000000e+00 0.0000000e+00 0.0000000e+00)) ((-2.5180234e+02 2.3227393e+00 1.8563013e-04) (-2.6510370e-04 -9.6705295e-04 -3.3570681e-04) (0.0000000e+00 0.0000000e+00 0.0000000e+00))
0.009         	((-6.4870014e+00 -5.4473901e+02 -1.3261212e-15) (3.0418222e-03 -2.4327644e-04 -2.5925203e-03) (0.0000000e+00 0.0000000e+00 0.0000000e+00)) ((-2.5176915e+02 2.3240819e+00 1.8592242e-04) (-2.6585171e-04 -9.5761601e-04 -3.3343436e-04) (0.0000000e+00 0.0000000e+00 0.0000000e+00))
0.01          	((-6.4974609e+00 -5.4464114e+02 -1.3266134e-15) (3.0124574e-03 -2.4473958e-04 -2.5965708e-03) (0.0000000e+00 0.0000000e+00 0.0000000e+00)) ((-2.5173571e+02 2.3261158e+00 1.8620396e-04) (-2.6654741e-04 -9.4867071e-04 -3.3116590e-04) (0.0000000e+00 0.0000000e+00 0.0000000e+00))
0.011         	((-6.5082936e+00 -5.4454253e+02 -1.3270056e-15) (2.9843305e-03 -2.4607399e-04 -2.6006077e-03) (0.0000000e+00 0.0000000e+00 0.0000000e+00)) ((-2.5170237e+02 2.3289970e+00 1.8650034e-04) (-2.6720398e-04 -9.4011094e-04 -3.2890010e-04) (0.0000000e+00 0.0000000e+00 0.0000000e+00))
0.012         	((-6.5194774e+00 -5.4444292e+02 -1.3273223e-15) (2.9571965e-03 -2.4730795e-04 -2.6046321e-03) (0.0000000e+00 0.0000000e+00 0.0000000e+00)) ((-2.5166882e+02 2.3324629e+00 1.8681267e-04) (-2.6783052e-04 -9.3185915e-04 -3.2663586e-04) (0.0000000e+00 0.0000000e+00 0.0000000e+00))
0.013         	((-6.5311348e+00 -5.4434294e+02 -1.3275722e-15) (2.9308719e-03 -2.4846339e-04 -2.6086437e-03) (0.0000000e+00 0.0000000e+00 0.0000000e+00)) ((-2.5163533e+02 2.3364593e+00 1.8714236e-04) (-2.6843380e-04 -9.2385697e-04 -3.2437226e-04) (0.0000000e+00 0.0000000e+00 0.0000000e+00))
0.014         	((-6.5431508e+00 -5.4424200e+02 -1.3277709e-15) (2.9052150e-03 -2.4955489e-04 -2.6126467e-03) (0.0000000e+00 0.0000000e+00 0.0000000e+00)) ((-2.5160163e+02 2.3408169e+00 1.8748084e-04) (-2.6901869e-04 -9.1606020e-04 -3.2210858e-04) (0.0000000e+00 0.0000000e+00 0.0000000e+00))
0.015         	((-6.5554295e+00 -5.4414080e+02 -1.3279224e-15) (2.8801176e-03 -2.5059462e-04 -2.6166410e-03) (0.0000000e+00 0.0000000e+00 0.0000000e+00)) ((-2.5156802e+02 2.3454888e+00 1.8782800e-04) (-2.6958897e-04 -9.0843399e-04 -3.1984435e-04) (0.0000000e+00 0.0000000e+00 0.0000000e+00))
0.016         	((-6.5676861e+00 -5.4403917e+02 -1.3280362e-15) (2.8554949e-03 -2.5159151e-04 -2.6206273e-03) (0.0000000e+00 0.0000000e+00 0.0000000e+00)) ((-2.5153436e+02 2.3503423e+00 1.8817194e-04) (-2.7014726e-04 -9.0095102e-04 -3.1757934e-04) (0.0000000e+00 0.0000000e+00 0.0000000e+00))
0.017         	((-6.5798035e+00 -5.4393682e+02 -1.3281186e-15) (2.8312780e-03 -2.5255224e-04 -2.6246063e-03) (0.0000000e+00 0.0000000e+00 0.0000000e+00)) ((-2.5150050e+02 2.3552505e+00 1.8851129e-04) (-2.7069575e-04 -8.9358973e-04 -3.1531334e-04) (0.0000000e+00 0.0000000e+00 0.0000000e+00))
0.018         	((-6.5918778e+00 -5.4383406e+02 -1.3281725e-15) (2.8074106e-03 -2.5348149e-04 -2.6285786e-03) (0.0000000e+00 0.0000000e+00 0.0000000e+00)) ((-2.5146661e+02 2.3602352e+00 1.8884856e-04) (-2.7123603e-04 -8.8633269e-04 -3.1304609e-04) (0.0000000e+00 0.0000000e+00 0.0000000e+00))
0.019         	((-6.6036246e+00 -5.4373058e+02 -1.3282048e-15) (2.7838472e-03 -2.5438296e-04 -2.6325456e-03) (0.0000000e+00 0.0000000e+00 0.0000000e+00)) ((-2.5143257e+02 2.3651813e+00 1.8917407e-04) (-2.7176942e-04 -8.7916578e-04 -3.1077751e-04) (0.0000000e+00 0.0000000e+00 0.0000000e+00))
0.02          	((-6.6152604e+00 -5.4362692e+02 -1.3282191e-15) (2.7605488e-03 -2.5525913e-04 -2.6365078e-03) (0.0000000e+00 0.0000000e+00 0.0000000e+00)) ((-2.5139855e+02 2.3701261e+00 1.8949561e-04) (-2.7229668e-04 -8.7207739e-04 -3.0850745e-04) (0.0000000e+00 0.0000000e+00 0.0000000e+00))
0.021         	((-6.6194504e+00 -5.4354606e+02 -1.3282427e-15) (2.7375418e-03 -2.5610837e-04 -2.6404061e-03) (0.0000000e+00 0.0000000e+00 0.0000000e+00)) ((-2.5137015e+02 2.3735069e+00 1.8960311e-04) (-2.7281537e-04 -8.6504942e-04 -3.0624352e-04) (0.0000000e+00 0.0000000e+00 0.0000000e+00))
0.022         	((-6.6368815e+00 -5.4342054e+02 -1.3282171e-15) (2.7146974e-03 -2.5694565e-04 -2.6443527e-03) (0.0000000e+00 0.0000000e+00 0.0000000e+00)) ((-2.5133094e+02 2.3796592e+00 1.9008294e-04) (-2.7333236e-04 -8.5808973e-04 -3.0397108e-04) (0.0000000e+00 0.0000000e+00 0.0000000e+00))
0.023         	((-6.6469380e+00 -5.4331683e+02 -1.3281946e-15) (2.6920530e-03 -2.5776660e-04 -2.6482887e-03) (0.0000000e+00 0.0000000e+00 0.0000000e+00)) ((-2.5129696e+02 2.3842478e+00 1.9035089e-04) (-2.7384482e-04 -8.5118282e-04 -3.0169775e-04) (0.0000000e+00 0.0000000e+00 0.0000000e+00))
0.024         	((-6.6571288e+00 -5.4321261e+02 -1.3281577e-15) (2.6695828e-03 -2.5857307e-04 -2.6522174e-03) (0.0000000e+00 0.0000000e+00 0.0000000e+00)) ((-2.5126294e+02 2.3888641e+00 1.9062221e-04) (-2.7435347e-04 -8.4432334e-04 -2.9942311e-04) (0.0000000e+00 0.0000000e+00 0.0000000e+00))
0.025         	((-6.6668916e+00 -5.4310827e+02 -1.3281101e-15) (2.6472686e-03 -2.5936678e-04 -2.6561392e-03) (0.0000000e+00 0.0000000e+00 0.0000000e+00)) ((-2.5122889e+02 2.3933458e+00 1.9088155e-04) (-2.7485853e-04 -8.3750648e-04 -2.9714716e-04) (0.0000000e+00 0.0000000e+00 0.0000000e+00))
0.026         	((-6.6765099e+00 -5.4300318e+02 -1.3280508e-15) (2.6250966e-03 -2.6014865e-04 -2.6600546e-03) (0.0000000e+00 0.0000000e+00 0.0000000e+00)) ((-2.5119462e+02 2.3977947e+00 1.9113429e-04) (-2.7536015e-04 -8.3072770e-04 -2.9486991e-04) (0.0000000e+00 0.0000000e+00 0.0000000e+00))
0.027         	((-6.6858026e+00 -5.4289745e+02 -1.3279815e-15) (2.6030553e-03 -2.6092010e-04 -2.6639638e-03) (0.0000000e+00 0.0000000e+00 0.0000000e+00)) ((-2.5116012e+02 2.4021750e+00 1.9137678e-04) (-2.7585874e-04 -8.2398292e-04 -2.9259149e-04) (0.0000000e+00 0.0000000e+00 0.0000000e+00))
0.028         	((-6.6948418e+00 -5.4279139e+02 -1.3279016e-15) (2.5811341e-03 -2.6168220e-04 -2.6678665e-03) (0.0000000e+00 0.0000000e+00 0.0000000e+00)) ((-2.5112552e+02 2.4064785e+00 1.9161127e-04) (-2.7635452e-04 -8.1726863e-04 -2.9031192e-04) (0.0000000e+00 0.0000000e+00 0.0000000e+00))
0.029         	((-6.7036492e+00 -5.4268513e+02 -1.3278147e-15) (2.5593231e-03 -2.6243566e-04 -2.6717628e-03) (0.0000000e+00 0.0000000e+00 0.0000000e+00)) ((-2.5109089e+02 2.4106987e+00 1.9183876e-04) (-2.7684770e-04 -8.1058191e-04 -2.8803123e-04) (0.0000000e+00 0.0000000e+00 0.0000000e+00))
0.03          	((-6.7123264e+00 -5.4257818e+02 -1.3277206e-15) (2.5376125e-03 -2.6318124e-04 -2.6756544e-03) (0.0000000e+00 0.0000000e+00 0.0000000e+00)) ((-2.5105601e+02 2.4148642e+00 1.9205961e-04) (-2.7733847e-04 -8.0392018e-04 -2.8574938e-04) (0.0000000e+00 0.0000000e+00 0.0000000e+00))
0.031         	((-6.7210237e+00 -5.4247038e+02 -1.3276212e-15) (2.5159936e-03 -2.6391981e-04 -2.6795425e-03) (0.0000000e+00 0.0000000e+00 0.0000000e+00)) ((-2.5102086e+02 2.4190494e+00 1.9228213e-04) (-2.7782712e-04 -7.9728091e-04 -2.8346633e-04) (0.0000000e+00 0.0000000e+00 0.0000000e+00))
0.032         	((-6.7294151e+00 -5.4236247e+02 -1.3275153e-15) (2.4944606e-03 -2.6465208e-04 -2.6834258e-03) (0.0000000e+00 0.0000000e+00 0.0000000e+00)) ((-2.5098566e+02 2.4231250e+00 1.9249425e-04) (-2.7831359e-04 -7.9066186e-04 -2.8118216e-04) (0.0000000e+00 0.0000000e+00 0.0000000e+00))
0.033         	((-6.7376341e+00 -5.4225447e+02 -1.3274010e-15) (2.4730085e-03 -2.6537903e-04 -2.6873022e-03) (0.0000000e+00 0.0000000e+00 0.0000000e+00)) ((-2.5095040e+02 2.4271630e+00 1.9270219e-04) (-2.7879804e-04 -7.8406079e-04 -2.7889701e-04) (0.0000000e+00 0.0000000e+00 0.0000000e+00))
0.034         	((-6.7456259e+00 -5.4214617e+02 -1.3272819e-15) (2.4516316e-03 -2.6610107e-04 -2.6911719e-03) (0.0000000e+00 0.0000000e+00 0.0000000e+00)) ((-2.5091505e+02 2.4311025e+00 1.9290248e-04) (-2.7928052e-04 -7.7747617e-04 -2.7661081e-04) (0.0000000e+00 0.0000000e+00 0.0000000e+00))
0.035         	((-6.7535787e+00 -5.4203782e+02 -1.3271552e-15) (2.4303249e-03 -2.6681935e-04 -2.6950342e-03) (0.0000000e+00 0.0000000e+00 0.0000000e+00)) ((-2.5087967e+02 2.4350333e+00 1.9310238e-04) (-2.7976116e-04 -7.7090621e-04 -2.7432356e-04) (0.0000000e+00 0.0000000e+00 0.0000000e+00))
0.036         	((-6.7614549e+00 -5.4192895e+02 -1.3270278e-15) (2.4090840e-03 -2.6753396e-04 -2.6988893e-03) (0.0000000e+00 0.0000000e+00 0.0000000e+00)) ((-2.5084412e+02 2.4389057e+00 1.9329897e-04) (-2.8024003e-04 -7.6434945e-04 -2.7203524e-04) (0.0000000e+00 0.0000000e+00 0.0000000e+00))
0.037         	((-6.7691681e+00 -5.4181996e+02 -1.3269086e-15) (2.3879056e-03 -2.6824537e-04 -2.7027373e-03) (0.0000000e+00 0.0000000e+00 0.0000000e+00)) ((-2.5080853e+02 2.4427185e+00 1.9349279e-04) (-2.8071725e-04 -7.5780443e-04 -2.6974593e-04) (0.0000000e+00 0.0000000e+00 0.0000000e+00))
0.038         	((-6.7769672e+00 -5.4171050e+02 -1.3267948e-15) (2.3667864e-03 -2.6895350e-04 -2.7065778e-03) (0.0000000e+00 0.0000000e+00 0.0000000e+00)) ((-2.5077275e+02 2.4465376e+00 1.9368871e-04) (-2.8119269e-04 -7.5126974e-04 -2.6745558e-04) (0.0000000e+00 0.0000000e+00 0.0000000e+00))
0.039         	((-6.7848062e+00 -5.4160079e+02 -1.3266913e-15) (2.3457230e-03 -2.6965854e-04 -2.7104106e-03) (0.0000000e+00 0.0000000e+00 0.0000000e+00)) ((-2.5073686e+02 2.4503484e+00 1.9388671e-04) (-2.8166648e-04 -7.4474410e-04 -2.6516414e-04) (0.0000000e+00 0.0000000e+00 0.0000000e+00))
0.04          	((-6.7927697e+00 -5.4149065e+02 -1.3265967e-15) (2.3247118e-03 -2.7036079e-04 -2.7142348e-03) (0.0000000e+00 0.0000000e+00 0.0000000e+00)) ((-2.5070084e+02 2.4541489e+00 1.9408901e-04) (-2.8213880e-04 -7.3822621e-04 -2.6287154e-04) (0.0000000e+00 0.0000000e+00 0.0000000e+00))
0.041         	((-6.8007939e+00 -5.4137989e+02 -1.3265130e-15) (2.3037499e-03 -2.7105985e-04 -2.7180497e-03) (0.0000000e+00 0.0000000e+00 0.0000000e+00)) ((-2.5066463e+02 2.4579446e+00 1.9429205e-04) (-2.8260966e-04 -7.3171480e-04 -2.6057776e-04) (0.0000000e+00 0.0000000e+00 0.0000000e+00))
0.042         	((-6.8086174e+00 -5.4126953e+02 -1.3264341e-15) (2.2828354e-03 -2.7175610e-04 -2.7218538e-03) (0.0000000e+00 0.0000000e+00 0.0000000e+00)) ((-2.5062847e+02 2.4616680e+00 1.9449204e-04) (-2.8307896e-04 -7.2520890e-04 -2.5828284e-04) (0.0000000e+00 0.0000000e+00 0.0000000e+00))
0.043         	((-6.8167272e+00 -5.4115849e+02 -1.3263642e-15) (2.2619648e-03 -2.7245047e-04 -2.7256466e-03) (0.0000000e+00 0.0000000e+00 0.0000000e+00)) ((-2.5059207e+02 2.4654407e+00 1.9470145e-04) (-2.8354659e-04 -7.1870746e-04 -2.5598659e-04) (0.0000000e+00 0.0000000e+00 0.0000000e+00))
0.044         	((-6.8247979e+00 -5.4104770e+02 -1.3263050e-15) (2.2411355e-03 -2.7314326e-04 -2.7294269e-03) (0.0000000e+00 0.0000000e+00 0.0000000e+00)) ((-2.5055579e+02 2.4691476e+00 1.9491066e-04) (-2.8401255e-04 -7.1220958e-04 -2.5368899e-04) (0.0000000e+00 0.0000000e+00 0.0000000e+00))
0.045         	((-6.8328690e+00 -5.4093682e+02 -1.3262526e-15) (2.2203456e-03 -2.7383530e-04 -2.7331944e-03) (0.0000000e+00 0.0000000e+00 0.0000000e+00)) ((-2.5051941e+02 2.4728572e+00 1.9512087e-04) (-2.8447697e-04 -7.0571418e-04 -2.5139005e-04) (0.0000000e+00 0.0000000e+00 0.0000000e+00))
0.046         	((-6.8411031e+00 -5.4082548e+02 -1.3262097e-15) (2.1995925e-03 -2.7452653e-04 -2.7369501e-03) (0.0000000e+00 0.0000000e+00 0.0000000e+00)) ((-2.5048288e+02 2.4766167e+00 1.9533462e-04) (-2.8494001e-04 -6.9922012e-04 -2.4908972e-04) (0.0000000e+00 0.0000000e+00 0.0000000e+00))
0.047         	((-6.8493563e+00 -5.4071382e+02 -1.3261683e-15) (2.1788717e-03 -2.7521710e-04 -2.7406905e-03) (0.0000000e+00 0.0000000e+00 0.0000000e+00)) ((-2.5044620e+02 2.4803587e+00 1.9554980e-04) (-2.8540163e-04 -6.9272679e-04 -2.4678799e-04) (0.0000000e+00 0.0000000e+00 0.0000000e+00))
0.048         	((-6.8577490e+00 -5.4060192e+02 -1.3261311e-15) (2.1581795e-03 -2.7590839e-04 -2.7444122e-03) (0.0000000e+00 0.0000000e+00 0.0000000e+00)) ((-2.5040946e+02 2.4841075e+00 1.9577009e-04) (-2.8586161e-04 -6.8623349e-04 -2.4448481e-04) (0.0000000e+00 0.0000000e+00 0.0000000e+00))
0.049         	((-6.8667386e+00 -5.4048874e+02 -1.3260927e-15) (2.1375129e-03 -2.7660125e-04 -2.7481192e-03) (0.0000000e+00 0.0000000e+00 0.0000000e+00)) ((-2.5037219e+02 2.4881672e+00 1.9601017e-04) (-2.8632078e-04 -6.7973812e-04 -2.4217992e-04) (0.0000000e+00 0.0000000e+00 0.0000000e+00))
0.05          	((-6.8750214e+00 -5.4037663e+02 -1.3260731e-15) (2.1168716e-03 -2.7729435e-04 -2.7518101e-03) (0.0000000e+00 0.0000000e+00 0.0000000e+00)) ((-2.5033537e+02 2.4917801e+00 1.9622390e-04) (-2.8677754e-04 -6.7324026e-04 -2.3987363e-04) (0.0000000e+00 0.0000000e+00 0.0000000e+00))
0.051         	((-6.8833944e+00 -5.4026419e+02 -1.3260653e-15) (2.0962534e-03 -2.7798711e-04 -2.7554859e-03) (0.0000000e+00 0.0000000e+00 0.0000000e+00)) ((-2.5029841e+02 2.4954375e+00 1.9644323e-04) (-2.8723257e-04 -6.6673857e-04 -2.3756582e-04) (0.0000000e+00 0.0000000e+00 0.0000000e+00))
0.052         	((-6.8916606e+00 -5.4015165e+02 -1.3260574e-15) (2.0756541e-03 -2.7867797e-04 -2.7591466e-03) (0.0000000e+00 0.0000000e+00 0.0000000e+00)) ((-2.5026143e+02 2.4989800e+00 1.9665466e-04) (-2.8768504e-04 -6.6023187e-04 -2.3525654e-04) (0.0000000e+00 0.0000000e+00 0.0000000e+00))
0.053         	((-6.9002604e+00 -5.4003832e+02 -1.3260868e-15) (2.0550686e-03 -2.7936561e-04 -2.7627912e-03) (0.0000000e+00 0.0000000e+00 0.0000000e+00)) ((-2.5022413e+02 2.5025697e+00 1.9686953e-04) (-2.8813389e-04 -6.5371795e-04 -2.3294576e-04) (0.0000000e+00 0.0000000e+00 0.0000000e+00))
0.054         	((-6.9086554e+00 -5.3992567e+02 -1.3260872e-15) (2.0344917e-03 -2.8005180e-04 -2.7664199e-03) (0.0000000e+00 0.0000000e+00 0.0000000e+00)) ((-2.5018709e+02 2.5062056e+00 1.9709100e-04) (-2.8858196e-04 -6.4719394e-04 -2.3063327e-04) (0.0000000e+00 0.0000000e+00 0.0000000e+00))
0.055         	((-6.9170954e+00 -5.3981256e+02 -1.3261611e-15) (2.0139164e-03 -2.8073303e-04 -2.7700327e-03) (0.0000000e+00 0.0000000e+00 0.0000000e+00)) ((-2.5014979e+02 2.5099464e+00 1.9730297e-04) (-2.8902708e-04 -6.4065536e-04 -2.2831923e-04) (0.0000000e+00 0.0000000e+00 0.0000000e+00))
0.056         	((-6.9262076e+00 -5.3969820e+02 -1.3261495e-15) (1.9933393e-03 -2.8141059e-04 -2.7736292e-03) (0.0000000e+00 0.0000000e+00 0.0000000e+00)) ((-2.5011215e+02 2.5136366e+00 1.9753866e-04) (-2.8946799e-04 -6.3410125e-04 -2.2600329e-04) (0.0000000e+00 0.0000000e+00 0.0000000e+00))
0.057         	((-6.9345263e+00 -5.3958452e+02 -1.3260274e-15) (1.9727671e-03 -2.8207972e-04 -2.7772099e-03) (0.0000000e+00 0.0000000e+00 0.0000000e+00)) ((-2.5007476e+02 2.5169133e+00 1.9773866e-04) (-2.8990169e-04 -6.2753416e-04 -2.2368617e-04) (0.0000000e+00 0.0000000e+00 0.0000000e+00))
0.058         	((-6.9429053e+00 -5.3947131e+02 -1.3259413e-15) (1.9522023e-03 -2.8274674e-04 -2.7807731e-03) (0.0000000e+00 0.0000000e+00 0.0000000e+00)) ((-2.5003760e+02 2.5201910e+00 1.9796172e-04) (-2.9033190e-04 -6.2095624e-04 -2.2136734e-04) (0.0000000e+00 0.0000000e+00 0.0000000e+00))
0.059         	((-6.9527619e+00 -5.3935660e+02 -1.3259192e-15) (1.9316427e-03 -2.8341318e-04 -2.7843205e-03) (0.0000000e+00 0.0000000e+00 0.0000000e+00)) ((-2.4999979e+02 2.5241866e+00 1.9822883e-04) (-2.9075995e-04 -6.1436809e-04 -2.1904633e-04) (0.0000000e+00 0.0000000e+00 0.0000000e+00))
0.06          	((-6.9615912e+00 -5.3924243e+02 -1.3259321e-15) (1.9110928e-03 -2.8407744e-04 -2.7878499e-03) (0.0000000e+00 0.0000000e+00 0.0000000e+00)) ((-2.4996220e+02 2.5277796e+00 1.9845286e-04) (-2.9118496e-04 -6.0777211e-04 -2.1672363e-04) (0.0000000e+00 0.0000000e+00 0.0000000e+00))
0.061         	((-6.9702174e+00 -5.3912832e+02 -1.3259434e-15) (1.8905567e-03 -2.8474019e-04 -2.7913597e-03) (0.0000000e+00 0.0000000e+00 0.0000000e+00)) ((-2.4992466e+02 2.5312019e+00 1.9866702e-04) (-2.9160473e-04 -6.0117088e-04 -2.1439948e-04) (0.0000000e+00 0.0000000e+00 0.0000000e+00))
0.062         	((-6.9797767e+00 -5.3901345e+02 -1.3259298e-15) (1.8700329e-03 -2.8540356e-04 -2.7948508e-03) (0.0000000e+00 0.0000000e+00 0.0000000e+00)) ((-2.4988679e+02 2.5350727e+00 1.9892425e-04) (-2.9202198e-04 -5.9456572e-04 -2.1207335e-04) (0.0000000e+00 0.0000000e+00 0.0000000e+00))
0.063         	((-6.9887779e+00 -5.3889822e+02 -1.3259489e-15) (1.8495295e-03 -2.8606192e-04 -2.7983221e-03) (0.0000000e+00 0.0000000e+00 0.0000000e+00)) ((-2.4984890e+02 2.5385970e+00 1.9915338e-04) (-2.9243623e-04 -5.8796290e-04 -2.0974563e-04) (0.0000000e+00 0.0000000e+00 0.0000000e+00))
0.064         	((-6.9980338e+00 -5.3878341e+02 -1.3259839e-15) (1.8290477e-03 -2.8672066e-04 -2.8017736e-03) (0.0000000e+00 0.0000000e+00 0.0000000e+00)) ((-2.4981098e+02 2.5424124e+00 1.9941117e-04) (-2.9285022e-04 -5.8136377e-04 -2.0741582e-04) (0.0000000e+00 0.0000000e+00 0.0000000e+00))
0.065         	((-7.0076779e+00 -5.3866839e+02 -1.3259868e-15) (1.8085844e-03 -2.8738245e-04 -2.8052062e-03) (0.0000000e+00 0.0000000e+00 0.0000000e+00)) ((-2.4977304e+02 2.5462367e+00 1.9969603e-04) (-2.9326372e-04 -5.7476880e-04 -2.0508379e-04) (0.0000000e+00 0.0000000e+00 0.0000000e+00))
0.066         	((-7.0169334e+00 -5.3855331e+02 -1.3260915e-15) (1.7881406e-03 -2.8804101e-04 -2.8086158e-03) (0.0000000e+00 0.0000000e+00 0.0000000e+00)) ((-2.4973504e+02 2.5499179e+00 1.9994306e-04) (-2.9367543e-04 -5.6817650e-04 -2.0274998e-04) (0.0000000e+00 0.0000000e+00 0.0000000e+00))
0.067         	((-7.0272565e+00 -5.3843755e+02 -1.3263468e-15) (1.7677276e-03 -2.8869247e-04 -2.8120020e-03) (0.0000000e+00 0.0000000e+00 0.0000000e+00)) ((-2.4969665e+02 2.5539187e+00 2.0022698e-04) (-2.9408623e-04 -5.6158799e-04 -2.0041408e-04) (0.0000000e+00 0.0000000e+00 0.0000000e+00))
0.068         	((-7.0364667e+00 -5.3832306e+02 -1.3264812e-15) (1.7473427e-03 -2.8933540e-04 -2.8153633e-03) (0.0000000e+00 0.0000000e+00 0.0000000e+00)) ((-2.4965883e+02 2.5574215e+00 2.0048077e-04) (-2.9449578e-04 -5.5500282e-04 -1.9807629e-04) (0.0000000e+00 0.0000000e+00 0.0000000e+00))
0.069         	((-7.0465719e+00 -5.3820700e+02 -1.3266255e-15) (1.7269725e-03 -2.8997467e-04 -2.8187024e-03) (0.0000000e+00 0.0000000e+00 0.0000000e+00)) ((-2.4962061e+02 2.5610523e+00 2.0075801e-04) (-2.9490480e-04 -5.4841911e-04 -1.9573615e-04) (0.0000000e+00 0.0000000e+00 0.0000000e+00))
0.07          	((-7.0568927e+00 -5.3809114e+02 -1.3267519e-15) (1.7066165e-03 -2.9061270e-04 -2.8220213e-03) (0.0000000e+00 0.0000000e+00 0.0000000e+00)) ((-2.4958230e+02 2.5650668e+00 2.0105130e-04) (-2.9531467e-04 -5.4183692e-04 -1.9339356e-04) (0.0000000e+00 0.0000000e+00 0.0000000e+00))
0.071         	((-7.0656698e+00 -5.3797609e+02 -1.3268815e-15) (1.6862737e-03 -2.9124107e-04 -2.8253178e-03) (0.0000000e+00 0.0000000e+00 0.0000000e+00)) ((-2.4954438e+02 2.5683637e+00 2.0127117e-04) (-2.9572278e-04 -5.3525638e-04 -1.9104944e-04) (0.0000000e+00 0.0000000e+00 0.0000000e+00))
0.072         	((-7.0763104e+00 -5.3785982e+02 -1.3270285e-15) (1.6659382e-03 -2.9186681e-04 -2.8285915e-03) (0.0000000e+00 0.0000000e+00 0.0000000e+00)) ((-2.4950584e+02 2.5724089e+00 2.0155206e-04) (-2.9613093e-04 -5.2867711e-04 -1.8870316e-04) (0.0000000e+00 0.0000000e+00 0.0000000e+00))
0.073         	((-7.0856765e+00 -5.3774433e+02 -1.3270359e-15) (1.6456176e-03 -2.9248334e-04 -2.8318409e-03) (0.0000000e+00 0.0000000e+00 0.0000000e+00)) ((-2.4946779e+02 2.5758749e+00 2.0181289e-04) (-2.9653894e-04 -5.2209707e-04 -1.8635475e-04) (0.0000000e+00 0.0000000e+00 0.0000000e+00))
0.074         	((-7.0953566e+00 -5.3762820e+02 -1.3270685e-15) (1.6253142e-03 -2.9309346e-04 -2.8350666e-03) (0.0000000e+00 0.0000000e+00 0.0000000e+00)) ((-2.4942935e+02 2.5795066e+00 2.0208364e-04) (-2.9694768e-04 -5.1551937e-04 -1.8400401e-04) (0.0000000e+00 0.0000000e+00 0.0000000e+00))
0.075         	((-7.1055720e+00 -5.3751083e+02 -1.3271921e-15) (1.6050256e-03 -2.9369131e-04 -2.8382683e-03) (0.0000000e+00 0.0000000e+00 0.0000000e+00)) ((-2.4939049e+02 2.5832114e+00 2.0234969e-04) (-2.9735464e-04 -5.0894159e-04 -1.8165153e-04) (0.0000000e+00 0.0000000e+00 0.0000000e+00))
0.076         	((-7.1151160e+00 -5.3739496e+02 -1.3274044e-15) (1.5847548e-03 -2.9428284e-04 -2.8414439e-03) (0.0000000e+00 0.0000000e+00 0.0000000e+00)) ((-2.4935236e+02 2.5864359e+00 2.0261225e-04) (-2.9776111e-04 -5.0236377e-04 -1.7929704e-04) (0.0000000e+00 0.0000000e+00 0.0000000e+00))
0.077         	((-7.1258625e+00 -5.3727818e+02 -1.3276791e-15) (1.5645068e-03 -2.9487922e-04 -2.8445992e-03) (0.0000000e+00 0.0000000e+00 0.0000000e+00)) ((-2.4931384e+02 2.5899766e+00 2.0292696e-04) (-2.9816795e-04 -4.9578763e-04 -1.7693961e-04) (0.0000000e+00 0.0000000e+00 0.0000000e+00))
0.078         	((-7.1372064e+00 -5.3716121e+02 -1.3276858e-15) (1.5442858e-03 -2.9548063e-04 -2.8477446e-03) (0.0000000e+00 0.0000000e+00 0.0000000e+00)) ((-2.4927526e+02 2.5937645e+00 2.0325199e-04) (-2.9857494e-04 -4.8921259e-04 -1.7457926e-04) (0.0000000e+00 0.0000000e+00 0.0000000e+00))
0.079         	((-7.1475101e+00 -5.3704452e+02 -1.3277724e-15) (1.5240953e-03 -2.9608001e-04 -2.8508771e-03) (0.0000000e+00 0.0000000e+00 0.0000000e+00)) ((-2.4923671e+02 2.5974040e+00 2.0352582e-04) (-2.9898220e-04 -4.8263950e-04 -1.7221692e-04) (0.0000000e+00 0.0000000e+00 0.0000000e+00))
0.08          	((-7.1574840e+00 -5.3692805e+02 -1.3279571e-15) (1.5039266e-03 -2.9668072e-04 -2.8540001e-03) (0.0000000e+00 0.0000000e+00 0.0000000e+00)) ((-2.4919827e+02 2.6007271e+00 2.0381964e-04) (-2.9939017e-04 -4.7606879e-04 -1.6985215e-04) (0.0000000e+00 0.0000000e+00 0.0000000e+00))
0.081         	((-7.1696339e+00 -5.3681052e+02 -1.3280303e-15) (1.4838091e-03 -2.9728943e-04 -2.8571052e-03) (0.0000000e+00 0.0000000e+00 0.0000000e+00)) ((-2.4915953e+02 2.6045780e+00 2.0419385e-04) (-2.9979928e-04 -4.6949757e-04 -1.6748395e-04) (0.0000000e+00 0.0000000e+00 0.0000000e+00))
0.082         	((-7.1820002e+00 -5.3669279e+02 -1.3278134e-15) (1.4637887e-03 -2.9791035e-04 -2.8601674e-03) (0.0000000e+00 0.0000000e+00 0.0000000e+00)) ((-2.4912086e+02 2.6082384e+00 2.0457213e-04) (-3.0020866e-04 -4.6292371e-04 -1.6511273e-04) (0.0000000e+00 0.0000000e+00 0.0000000e+00))
0.083         	((-7.1927731e+00 -5.3657610e+02 -1.3279377e-15) (1.4438391e-03 -2.9854352e-04 -2.8631981e-03) (0.0000000e+00 0.0000000e+00 0.0000000e+00)) ((-2.4908232e+02 2.6115601e+00 2.0490270e-04) (-3.0061764e-04 -4.5634820e-04 -1.6273884e-04) (0.0000000e+00 0.0000000e+00 0.0000000e+00))
0.084         	((-7.2050276e+00 -5.3645887e+02 -1.3280451e-15) (1.4239472e-03 -2.9919207e-04 -2.8662034e-03) (0.0000000e+00 0.0000000e+00 0.0000000e+00)) ((-2.4904370e+02 2.6154052e+00 2.0526658e-04) (-3.0102842e-04 -4.4977125e-04 -1.6036193e-04) (0.0000000e+00 0.0000000e+00 0.0000000e+00))
0.085         	((-7.2163631e+00 -5.3634091e+02 -1.3280854e-15) (1.4041079e-03 -2.9985086e-04 -2.8691789e-03) (0.0000000e+00 0.0000000e+00 0.0000000e+00)) ((-2.4900488e+02 2.6187264e+00 2.0558225e-04) (-3.0143864e-04 -4.4319254e-04 -1.5798258e-04) (0.0000000e+00 0.0000000e+00 0.0000000e+00))
0.086         	((-7.2281155e+00 -5.3622347e+02 -1.3281375e-15) (1.3843120e-03 -3.0052148e-04 -2.8721236e-03) (0.0000000e+00 0.0000000e+00 0.0000000e+00)) ((-2.4896639e+02 2.6222750e+00 2.0590811e-04) (-3.0184884e-04 -4.3660968e-04 -1.5560058e-04) (0.0000000e+00 0.0000000e+00 0.0000000e+00))
0.087         	((-7.2384669e+00 -5.3610613e+02 -1.3282297e-15) (1.3645559e-03 -3.0119994e-04 -2.8750405e-03) (0.0000000e+00 0.0000000e+00 0.0000000e+00)) ((-2.4892778e+02 2.6254325e+00 2.0617937e-04) (-3.0225827e-04 -4.3002396e-04 -1.5321628e-04) (0.0000000e+00 0.0000000e+00 0.0000000e+00))
0.088         	((-7.2501727e+00 -5.3598871e+02 -1.3283324e-15) (1.3448381e-03 -3.0189073e-04 -2.8779306e-03) (0.0000000e+00 0.0000000e+00 0.0000000e+00)) ((-2.4888921e+02 2.6289280e+00 2.0648867e-04) (-3.0266877e-04 -4.2343566e-04 -1.5082933e-04) (0.0000000e+00 0.0000000e+00 0.0000000e+00))
0.089         	((-7.2508554e+00 -5.3590485e+02 -1.3284380e-15) (1.3252405e-03 -3.0258037e-04 -2.8807027e-03) (0.0000000e+00 0.0000000e+00 0.0000000e+00)) ((-2.4885873e+02 2.6302226e+00 2.0646625e-04) (-3.0307354e-04 -4.1683042e-04 -1.4845109e-04) (0.0000000e+00 0.0000000e+00 0.0000000e+00))
0.09          	((-7.2716383e+00 -5.3575535e+02 -1.3284619e-15) (1.3055922e-03 -3.0328318e-04 -2.8835300e-03) (0.0000000e+00 0.0000000e+00 0.0000000e+00)) ((-2.4881243e+02 2.6355507e+00 2.0702507e-04) (-3.0348199e-04 -4.1023190e-04 -1.4605968e-04) (0.0000000e+00 0.0000000e+00 0.0000000e+00))
0.091         	((-7.2815910e+00 -5.3563978e+02 -1.3285567e-15) (1.2859780e-03 -3.0399184e-04 -2.8863271e-03) (0.0000000e+00 0.0000000e+00 0.0000000e+00)) ((-2.4877436e+02 2.6386125e+00 2.0727630e-04) (-3.0389025e-04 -4.0362901e-04 -1.4366643e-04) (0.0000000e+00 0.0000000e+00 0.0000000e+00))
0.092         	((-7.2926416e+00 -5.3552215e+02 -1.3286720e-15) (1.2663934e-03 -3.0471038e-04 -2.8890953e-03) (0.0000000e+00 0.0000000e+00 0.0000000e+00)) ((-2.4873573e+02 2.6418641e+00 2.0756382e-04) (-3.0429834e-04 -3.9702217e-04 -1.4127058e-04) (0.0000000e+00 0.0000000e+00 0.0000000e+00))
0.093         	((-7.3034822e+00 -5.3540467e+02 -1.3288112e-15) (1.2468319e-03 -3.0543573e-04 -2.8918336e-03) (0.0000000e+00 0.0000000e+00 0.0000000e+00)) ((-2.4869718e+02 2.6450356e+00 2.0784185e-04) (-3.0470547e-04 -3.9041002e-04 -1.3887219e-04) (0.0000000e+00 0.0000000e+00 0.0000000e+00))
0.094         	((-7.3148000e+00 -5.3528697e+02 -1.3289053e-15) (1.2272890e-03 -3.0616678e-04 -2.8945429e-03) (0.0000000e+00 0.0000000e+00 0.0000000e+00)) ((-2.4865849e+02 2.6483828e+00 2.0813693e-04) (-3.0511140e-04 -3.8379166e-04 -1.3647111e-04) (0.0000000e+00 0.0000000e+00 0.0000000e+00))
0.095         	((-7.3255704e+00 -5.3516897e+02 -1.3290476e-15) (1.2077714e-03 -3.0690470e-04 -2.8972237e-03) (0.0000000e+00 0.0000000e+00 0.0000000e+00)) ((-2.4861971e+02 2.6515446e+00 2.0840956e-04) (-3.0551713e-04 -3.7716862e-04 -1.3406761e-04) (0.0000000e+00 0.0000000e+00 0.0000000e+00))
0.096         	((-7.3369800e+00 -5.3505032e+02 -1.3291624e-15) (1.1882745e-03 -3.0764871e-04 -2.8998740e-03) (0.0000000e+00 0.0000000e+00 0.0000000e+00)) ((-2.4858067e+02 2.6550101e+00 2.0870114e-04) (-3.0592259e-04 -3.7053952e-04 -1.3166148e-04) (0.0000000e+00 0.0000000e+00 0.0000000e+00))
0.097         	((-7.3481017e+00 -5.3493170e+02 -1.3292739e-15) (1.1687963e-03 -3.0839502e-04 -2.9024959e-03) (0.0000000e+00 0.0000000e+00 0.0000000e+00)) ((-2.4854156e+02 2.6583090e+00 2.0898432e-04) (-3.0632602e-04 -3.6390355e-04 -1.2925279e-04) (0.0000000e+00 0.0000000e+00 0.0000000e+00))
0.098         	((-7.3594857e+00 -5.3481344e+02 -1.3293631e-15) (1.1493342e-03 -3.0914379e-04 -2.9050885e-03) (0.0000000e+00 0.0000000e+00 0.0000000e+00)) ((-2.4850264e+02 2.6616535e+00 2.0928844e-04) (-3.0672877e-04 -3.5726116e-04 -1.2684132e-04) (0.0000000e+00 0.0000000e+00 0.0000000e+00))
0.099         	((-7.3706638e+00 -5.3469464e+02 -1.3294983e-15) (1.1298886e-03 -3.0989536e-04 -2.9076505e-03) (0.0000000e+00 0.0000000e+00 0.0000000e+00)) ((-2.4846345e+02 2.6650017e+00 2.0956626e-04) (-3.0713042e-04 -3.5061247e-04 -1.2442733e-04) (0.0000000e+00 0.0000000e+00 0.0000000e+00))
0.1           	((-7.3817597e+00 -5.3457577e+02 -1.3296780e-15) (1.1104566e-03 -3.1064774e-04 -2.9101836e-03) (0.0000000e+00 0.0000000e+00 0.0000000e+00)) ((-2.4842418e+02 2.6682966e+00 2.0984890e-04) (-3.0753048e-04 -3.4395709e-04 -1.2201075e-04) (0.0000000e+00 0.0000000e+00 0.0000000e+00))
0.101         	((-7.3928579e+00 -5.3445692e+02 -1.3298996e-15) (1.0910363e-03 -3.1140032e-04 -2.9126871e-03) (0.0000000e+00 0.0000000e+00 0.0000000e+00)) ((-2.4838500e+02 2.6716099e+00 2.1012546e-04) (-3.0792977e-04 -3.3729524e-04 -1.1959163e-04) (0.0000000e+00 0.0000000e+00 0.0000000e+00))
0.102         	((-7.4041529e+00 -5.3433719e+02 -1.3301394e-15) (1.0716223e-03 -3.1214923e-04 -2.9151600e-03) (0.0000000e+00 0.0000000e+00 0.0000000e+00)) ((-2.4834540e+02 2.6749638e+00 2.1040953e-04) (-3.0832636e-04 -3.3062502e-04 -1.1716989e-04) (0.0000000e+00 0.0000000e+00 0.0000000e+00))