TITLE = "title"
VARIABLES = "x", "a", "b", "c"
ZONE T="test", I=512, 
-200.000000 0.000217 0.000144 0.000073 
-199.219000 0.000203 0.000130 0.000073 
-198.438000 0.000197 0.000125 0.000072 
-197.656000 0.000218 0.000145 0.000073 
-196.875000 0.000251 0.000178 0.000073 
-196.094000 0.000305 0.000231 0.000074 
-195.312000 0.000355 0.000280 0.000075 
-194.531000 0.000405 0.000329 0.000076 
-193.750000 0.000431 0.000354 0.000078 
-192.969000 0.000438 0.000360 0.000079 
-192.188000 0.000410 0.000331 0.000079 
-191.406000 0.000357 0.000278 0.000079 
-190.625000 0.000275 0.000197 0.000079 
-189.844000 0.000183 0.000106 0.000077 
-189.062000 0.000089 0.000013 0.000076 
-188.281000 0.000018 -0.000056 0.000074 
-187.500000 -0.000017 -0.000089 0.000072 
-186.719000 0.000005 -0.000066 0.000071 
-185.938000 0.000085 0.000014 0.000072 
-185.156000 0.000225 0.000151 0.000074 
-184.375000 0.000401 0.000325 0.000077 
-183.594000 0.000591 0.000510 0.000081 
-182.812000 0.000751 0.000666 0.000085 
-182.031000 0.000851 0.000761 0.000090 
-181.250000 0.000850 0.000757 0.000093 
-180.469000 0.000740 0.000645 0.000095 
-179.688000 0.000511 0.000417 0.000094 
-178.906000 0.000199 0.000109 0.000090 
-178.125000 -0.000158 -0.000242 0.000084 
-177.344000 -0.000485 -0.000562 0.000077 
-176.562000 -0.000718 -0.000788 0.000070 
-175.781000 -0.000784 -0.000849 0.000065 
-175.000000 -0.000645 -0.000709 0.000063 
-174.219000 -0.000287 -0.000353 0.000065 
-173.438000 0.000253 0.000180 0.000072 
-172.656000 0.000901 0.000818 0.000083 
-171.875000 0.001539 0.001442 0.000097 
-171.094000 0.002039 0.001927 0.000113 
-170.312000 0.002268 0.002141 0.000127 
-169.531000 0.002135 0.001999 0.000137 
-168.750000 0.001597 0.001458 0.000139 
-167.969000 0.000701 0.000570 0.000131 
-167.188000 -0.000437 -0.000550 0.000113 
-166.406000 -0.001615 -0.001704 0.000090 
-165.625000 -0.002599 -0.002663 0.000064 
-164.844000 -0.003145 -0.003188 0.000044 
-164.062000 -0.003069 -0.003101 0.000033 
-163.281000 -0.002279 -0.002313 0.000034 
-162.500000 -0.000827 -0.000874 0.000046 
-161.719000 0.001099 0.001028 0.000071 
-160.938000 0.003172 0.003067 0.000105 
-160.156000 0.004992 0.004843 0.000148 
-159.375000 0.006133 0.005937 0.000196 
-158.594000 0.006254 0.006015 0.000239 
-157.812000 0.005156 0.004893 0.000263 
-157.031000 0.002874 0.002621 0.000253 
-156.250000 -0.000302 -0.000506 0.000204 
-155.469000 -0.003836 -0.003961 0.000124 
-154.688000 -0.007029 -0.007067 0.000038 
-153.906000 -0.009141 -0.009113 -0.000027 
-153.125000 -0.009566 -0.009511 -0.000054 
-152.344000 -0.007970 -0.007928 -0.000042 
-151.562000 -0.004419 -0.004411 -0.000007 
-150.781000 0.000615 0.000579 0.000036 
-150.000000 0.006283 0.006193 0.000089 
-149.219000 0.011503 0.011334 0.000169 
-148.438000 0.015133 0.014841 0.000293 
-147.656000 0.016193 0.015746 0.000447 
-146.875000 0.014075 0.013499 0.000577 
-146.094000 0.008755 0.008152 0.000602 
-145.312000 0.000896 0.000427 0.000469 
-144.531000 -0.008143 -0.008342 0.000199 
-143.750000 -0.016524 -0.016421 -0.000103 
-142.969000 -0.022288 -0.021989 -0.000299 
-142.188000 -0.023844 -0.023538 -0.000306 
-141.406000 -0.020396 -0.020239 -0.000157 
-140.625000 -0.012198 -0.012212 0.000015 
-139.844000 -0.000527 -0.000610 0.000083 
-139.062000 0.012543 0.012502 0.000040 
-138.281000 0.024522 0.024493 0.000029 
-137.500000 0.032898 0.032663 0.000235 
-136.719000 0.035551 0.034835 0.000716 
-135.938000 0.031159 0.029884 0.001274 
-135.156000 0.019638 0.018102 0.001536 
-134.375000 0.002474 0.001278 0.001196 
-133.594000 -0.017219 -0.017508 0.000290 
-132.812000 -0.035150 -0.034407 -0.000743 
-132.031000 -0.046866 -0.045564 -0.001301 
-131.250000 -0.049041 -0.047991 -0.001051 
-130.469000 -0.040549 -0.040338 -0.000210 
-129.688000 -0.022783 -0.023338 0.000555 
-128.906000 0.000817 0.000187 0.000630 
-128.125000 0.025739 0.025761 -0.000022 
-127.344000 0.047324 0.048056 -0.000733 
-126.562000 0.061382 0.061983 -0.000602 
-125.781000 0.064579 0.063851 0.000728 
-125.000000 0.054918 0.052314 0.002604 
-124.219000 0.032467 0.028802 0.003665 
-123.438000 0.000217 -0.002598 0.002815 
-122.656000 -0.035603 -0.035784 0.000182 
-121.875000 -0.066441 -0.063706 -0.002735 
-121.094000 -0.083858 -0.079850 -0.004009 
-120.312000 -0.082585 -0.079849 -0.002736 
-119.531000 -0.062558 -0.062704 0.000146 
-118.750000 -0.028705 -0.031125 0.002420 
-117.969000 0.011222 0.008958 0.002264 
-117.188000 0.049301 0.049511 -0.000210 
-116.406000 0.079026 0.081860 -0.002834 
-115.625000 0.095555 0.098553 -0.002998 
-114.844000 0.095347 0.095180 0.000167 
-114.062000 0.076338 0.071561 0.004777 
-113.281000 0.039121 0.031794 0.007327 
-112.500000 -0.011256 -0.016572 0.005317 
-111.719000 -0.064398 -0.063819 -0.000579 
-110.938000 -0.106315 -0.099700 -0.006615 
-110.156000 -0.124305 -0.115725 -0.008580 
-109.375000 -0.112547 -0.107504 -0.005043 
-108.594000 -0.074753 -0.076108 0.001356 
-107.812000 -0.021956 -0.027696 0.005740 
-107.031000 0.032763 0.028029 0.004734 
-106.250000 0.078941 0.079698 -0.000756 
-105.469000 0.110190 0.116239 -0.006049 
-104.688000 0.123007 0.129315 -0.006308 
-103.906000 0.115047 0.115555 -0.000508 
-103.125000 0.084922 0.077492 0.007431 
-102.344000 0.034022 0.022660 0.011362 
-101.562000 -0.030560 -0.038178 0.007617 
-100.781000 -0.094678 -0.092779 -0.001899 
-100.000000 -0.140074 -0.129303 -0.010771 
-99.218800 -0.151885 -0.139114 -0.012771 
-98.437500 -0.126097 -0.119478 -0.006619 
-97.656200 -0.071588 -0.074528 0.002940 
-96.875000 -0.005100 -0.013794 0.008694 
-96.093800 0.056850 0.050333 0.006517 
-95.312500 0.103478 0.104884 -0.001405 
-94.531200 0.130076 0.138358 -0.008282 
-93.750000 0.135264 0.143341 -0.008077 
-92.968800 0.118333 0.118657 -0.000325 
-92.187500 0.079001 0.069663 0.009338 
-91.406200 0.019799 0.006428 0.013370 
-90.625000 -0.050480 -0.058616 0.008136 
-89.843800 -0.115653 -0.112514 -0.003139 
-89.062500 -0.156325 -0.143688 -0.012637 
-88.281200 -0.158659 -0.144860 -0.013799 
-87.500000 -0.121784 -0.115531 -0.006253 
-86.718800 -0.058283 -0.062278 0.003995 
-85.937500 0.012717 0.003477 0.009240 
-85.156200 0.074414 0.068374 0.006040 
-84.375000 0.117158 0.119415 -0.002258 
-83.593800 0.137664 0.146007 -0.008343 
-82.812500 0.135677 0.142480 -0.006803 
-82.031200 0.111360 0.109763 0.001597 
-81.250000 0.065486 0.055024 0.010462 
-80.468800 0.002115 -0.010578 0.012694 
-79.687500 -0.068197 -0.074238 0.006041 
-78.906200 -0.128330 -0.123273 -0.005057 
-78.125000 -0.159930 -0.147145 -0.012785 
-77.343800 -0.152205 -0.140317 -0.011888 
-76.562500 -0.107804 -0.104198 -0.003606 
-75.781200 -0.041371 -0.046775 0.005404 
-75.000000 0.028230 0.019905 0.008325 
-74.218800 0.085953 0.082449 0.003504 
-73.437500 0.123891 0.128285 -0.004394 
-72.656200 0.139563 0.147820 -0.008257 
-71.875000 0.132646 0.136923 -0.004277 
-71.093800 0.103055 0.098107 0.004948 
-70.312500 0.051968 0.039658 0.012310 
-69.531200 -0.015068 -0.026759 0.011690 
-68.750000 -0.085362 -0.088178 0.002816 
-67.968800 -0.140402 -0.132083 -0.008319 
-67.187500 -0.162664 -0.148751 -0.013913 
-66.406200 -0.144499 -0.134220 -0.010279 
-65.625000 -0.092323 -0.091715 -0.000608 
-64.843800 -0.023067 -0.030614 0.007547 
-64.062500 0.044581 0.036413 0.008167 
-63.281200 0.097383 0.095962 0.001421 
-62.500000 0.129367 0.135974 -0.006607 
-61.718800 0.139191 0.148018 -0.008827 
-60.937500 0.126863 0.129652 -0.002789 
-60.156200 0.092377 0.085073 0.007304 
-59.375000 0.037411 0.023678 0.013733 
-58.593800 -0.031298 -0.042478 0.011180 
-57.812500 -0.099647 -0.100544 0.000896 
-57.031200 -0.148659 -0.138566 -0.010093 
-56.250000 -0.162193 -0.147963 -0.014230 
-55.468800 -0.135437 -0.126349 -0.009088 
-54.687500 -0.077573 -0.078485 0.000912 
-53.906200 -0.006754 -0.014767 0.008013 
-53.125000 0.058920 0.051740 0.007180 
-52.343800 0.107633 0.107716 -0.000082 
-51.562500 0.134568 0.141703 -0.007136 
-50.781200 0.138854 0.146470 -0.007615 
-50.000000 0.120627 0.121143 -0.000517 
-49.218800 0.080298 0.071357 0.008942 
-48.437500 0.020774 0.007457 0.013317 
-47.656200 -0.049289 -0.058035 0.008746 
-46.875000 -0.114163 -0.112208 -0.001955 
-46.093800 -0.155013 -0.143682 -0.011331 
-45.312500 -0.158204 -0.145267 -0.012937 
-44.531200 -0.122651 -0.116446 -0.006205 
-43.750000 -0.060369 -0.063607 0.003238 
-42.968800 0.009996 0.001954 0.008043 
-42.187500 0.071882 0.066962 0.004920 
-41.406200 0.115513 0.118374 -0.002861 
-40.625000 0.137352 0.145576 -0.008225 
-39.843800 0.136764 0.142794 -0.006030 
-39.062500 0.113598 0.110845 0.002753 
-38.281200 0.068302 0.056667 0.011635 
-37.500000 0.004778 -0.008762 0.013539 
-36.718800 -0.066437 -0.072766 0.006329 
-35.937500 -0.127901 -0.122550 -0.005351 
-35.156200 -0.160791 -0.147347 -0.013444 
-34.375000 -0.153829 -0.141294 -0.012535 
-33.593800 -0.109535 -0.105627 -0.003907 
-32.812500 -0.042736 -0.048267 0.005531 
-32.031200 0.027284 0.018630 0.008654 
-31.250000 0.085242 0.081596 0.003646 
-30.468800 0.123198 0.127922 -0.004724 
-29.687500 0.138943 0.147958 -0.009014 
-28.906200 0.132427 0.137495 -0.005069 
-28.125000 0.103754 0.099097 0.004657 
-27.343800 0.053924 0.041040 0.012884 
-26.562500 -0.011975 -0.025046 0.013071 
-25.781200 -0.081937 -0.086419 0.004482 
-25.000000 -0.137841 -0.130722 -0.007119 
-24.218800 -0.162016 -0.148258 -0.013758 
-23.437500 -0.145996 -0.134775 -0.011222 
-22.656200 -0.095302 -0.093171 -0.002131 
-21.875000 -0.026304 -0.032531 0.006227 
-21.093800 0.042151 0.034503 0.007648 
-20.312500 0.096304 0.094501 0.001803 
-19.531200 0.129548 0.135259 -0.005711 
-18.750000 0.140206 0.148212 -0.008006 
-17.968800 0.128184 0.130664 -0.002480 
-17.187500 0.093677 0.086636 0.007042 
-16.406200 0.038580 0.025398 0.013183 
-15.625000 -0.030157 -0.040906 0.010749 
-14.843800 -0.098466 -0.099340 0.000874 
-14.062500 -0.147499 -0.137820 -0.009679 
-13.281200 -0.161348 -0.147743 -0.013605 
-12.500000 -0.135214 -0.126632 -0.008581 
-11.718800 -0.078154 -0.079194 0.001040 
-10.937500 -0.007985 -0.015683 0.007698 
-10.156200 0.057426 0.050863 0.006564 
-9.375000 0.106442 0.107169 -0.000727 
-8.593750 0.134177 0.141701 -0.007524 
-7.812500 0.139634 0.147202 -0.007568 
-7.031250 0.122611 0.122666 -0.000055 
-6.250000 0.083213 0.073636 0.009577 
-5.468750 0.023975 0.010251 0.013725 
-4.687500 -0.046530 -0.055043 0.008513 
-3.906250 -0.112415 -0.109375 -0.003041 
-3.125000 -0.154166 -0.141086 -0.013080 
-2.343750 -0.157438 -0.142708 -0.014730 
-1.562500 -0.120311 -0.113139 -0.007172 
-0.781250 -0.054466 -0.058363 0.003897 
0.000000 0.022767 0.011951 0.010815 
0.781250 0.090460 0.080534 0.009927 
1.562500 0.117607 0.113694 0.003913 
2.343750 0.089290 0.091579 -0.002289 
3.125000 0.017828 0.024220 -0.006392 
3.906250 -0.062238 -0.054222 -0.008016 
4.687500 -0.108950 -0.102966 -0.005984 
5.468750 -0.097070 -0.097196 0.000125 
6.250000 -0.033404 -0.040284 0.006879 
7.031250 0.047161 0.038081 0.009080 
7.812500 0.102807 0.097221 0.005586 
8.593750 0.106565 0.106533 0.000032 
9.375000 0.056656 0.060977 -0.004321 
10.156200 -0.023097 -0.016223 -0.006874 
10.937500 -0.091745 -0.084692 -0.007053 
11.718800 -0.112084 -0.108744 -0.003339 
12.500000 -0.072836 -0.076153 0.003317 
13.281200 0.004303 -0.003894 0.008196 
14.062500 0.078091 0.070608 0.007482 
14.843800 0.111499 0.108820 0.002679 
15.625000 0.088820 0.091054 -0.002234 
16.406200 0.020627 0.026139 -0.005512 
17.187500 -0.059366 -0.052282 -0.007083 
17.968800 -0.108857 -0.103161 -0.005695 
18.750000 -0.100630 -0.100221 -0.000409 
19.531200 -0.039308 -0.045253 0.005945 
20.312500 0.041585 0.033241 0.008345 
21.093800 0.099874 0.094532 0.005342 
21.875000 0.107291 0.107040 0.000251 
22.656200 0.060388 0.064163 -0.003775 
23.437500 -0.018382 -0.012143 -0.006239 
24.218800 -0.088684 -0.081988 -0.006696 
25.000000 -0.112388 -0.108861 -0.003527 
25.781200 -0.076362 -0.079078 0.002715 
26.562500 -0.000501 -0.008121 0.007619 
27.343800 0.074449 0.067189 0.007261 
28.125000 0.110705 0.107881 0.002823 
28.906200 0.091082 0.092930 -0.001849 
29.687500 0.024720 0.029745 -0.005026 
30.468800 -0.055737 -0.049017 -0.006720 
31.250000 -0.107813 -0.102086 -0.005727 
32.031200 -0.102901 -0.102026 -0.000875 
32.812500 -0.043704 -0.049053 0.005349 
33.593800 0.037366 0.029381 0.007985 
34.375000 0.097969 0.092648 0.005321 
35.156200 0.108595 0.108132 0.000464 
35.937500 0.064351 0.067777 -0.003426 
36.718800 -0.013693 -0.007823 -0.005869 
37.500000 -0.085723 -0.079171 -0.006552 
38.281200 -0.112832 -0.109031 -0.003801 
39.062500 -0.080011 -0.082167 0.002157 
39.843800 -0.005467 -0.012633 0.007166 
40.625000 0.070661 0.063492 0.007170 
41.406200 0.109796 0.106756 0.003040 
42.187500 0.093395 0.094869 -0.001474 
42.968800 0.029094 0.033682 -0.004588 
43.750000 -0.051514 -0.045143 -0.006371 
44.531200 -0.105997 -0.100298 -0.005699 
45.312500 -0.104396 -0.103163 -0.001233 
46.093800 -0.047589 -0.052447 0.004858 
46.875000 0.033309 0.025603 0.007706 
47.656200 0.095850 0.090496 0.005354 
48.437500 0.109458 0.108760 0.000698 
49.218800 0.067757 0.070854 -0.003097 
50.000000 -0.009466 -0.003916 -0.005550 
50.781200 -0.083035 -0.076587 -0.006448 
51.562500 -0.113284 -0.109201 -0.004083 
52.343800 -0.083501 -0.085112 0.001611 
53.125000 -0.010180 -0.016894 0.006714 
53.906200 0.067105 0.060058 0.007046 
54.687500 0.109105 0.105916 0.003189 
55.468800 0.095887 0.097072 -0.001186 
56.250000 0.033666 0.037896 -0.004230 
57.031200 -0.047107 -0.041034 -0.006073 
57.812500 -0.104028 -0.098336 -0.005692 
58.593800 -0.105889 -0.104291 -0.001598 
59.375000 -0.051649 -0.056017 0.004368 
60.156200 0.028875 0.021430 0.007445 
60.937500 0.093272 0.087843 0.005428 
61.718800 0.109865 0.108884 0.000981 
62.500000 0.070884 0.073611 -0.002727 
63.281200 -0.005247 -0.000061 -0.005186 
64.062500 -0.080000 -0.073727 -0.006273 
64.843800 -0.113151 -0.108880 -0.004271 
65.625000 -0.086324 -0.087465 0.001141 
66.406200 -0.014369 -0.020655 0.006286 
67.187500 0.063842 0.056944 0.006897 
67.968800 0.108426 0.105137 0.003289 
68.750000 0.098177 0.099133 -0.000957 
69.531200 0.037861 0.041803 -0.003941 
70.312500 -0.043133 -0.037280 -0.005853 
71.093800 -0.102495 -0.096734 -0.005762 
71.875000 -0.107738 -0.105710 -0.002028 
72.656200 -0.055990 -0.059816 0.003826 
73.437500 0.024275 0.017136 0.007140 
74.218800 0.090628 0.085168 0.005461 
75.000000 0.110359 0.109140 0.001219 
75.781200 0.074245 0.076641 -0.002397 
76.562500 -0.000616 0.004216 -0.004832 
77.343800 -0.076466 -0.070395 -0.006070 
78.125000 -0.112545 -0.108129 -0.004416 
78.906200 -0.088889 -0.089586 0.000697 
79.687500 -0.018588 -0.024445 0.005857 
80.468800 0.060250 0.053505 0.006745 
81.250000 0.107245 0.103847 0.003398 
82.031200 0.099901 0.100617 -0.000716 
82.812500 0.041607 0.045258 -0.003651 
83.593800 -0.039382 -0.033750 -0.005632 
84.375000 -0.100893 -0.095075 -0.005818 
85.156200 -0.109340 -0.106895 -0.002445 
85.937500 -0.060062 -0.063324 0.003262 
86.718800 0.019786 0.013031 0.006755 
87.500000 0.087946 0.082584 0.005361 
88.281200 0.110790 0.109497 0.001293 
89.062500 0.077793 0.080031 -0.002237 
89.843800 0.004620 0.009251 -0.004632 
90.625000 -0.072013 -0.066007 -0.006005 
91.406200 -0.111302 -0.106560 -0.004741 
92.187500 -0.091865 -0.091848 -0.000017 
92.968800 -0.024802 -0.029934 0.005132 
93.750000 0.053335 0.046932 0.006402 
94.531200 0.102504 0.099043 0.003461 
95.312500 0.099564 0.100020 -0.000456 
96.093800 0.046474 0.049760 -0.003286 
96.875000 -0.030677 -0.025490 -0.005187 
97.656200 -0.092026 -0.086453 -0.005573 
98.437500 -0.104778 -0.101966 -0.002813 
99.218800 -0.062711 -0.065009 0.002299 
100.000000 0.010373 0.004543 0.005831 
100.781000 0.075498 0.070418 0.005080 
101.562000 0.100718 0.099095 0.001622 
102.344000 0.075181 0.076813 -0.001632 
103.125000 0.012110 0.015935 -0.003825 
103.906000 -0.056474 -0.051438 -0.005036 
104.688000 -0.094655 -0.090498 -0.004157 
105.469000 -0.082728 -0.082240 -0.000488 
106.250000 -0.028621 -0.032423 0.003801 
107.031000 0.037526 0.032210 0.005316 
107.812000 0.081647 0.078267 0.003381 
108.594000 0.083359 0.083117 0.000243 
109.375000 0.043576 0.045806 -0.002231 
110.156000 -0.016926 -0.013154 -0.003773 
110.938000 -0.066787 -0.062760 -0.004027 
111.719000 -0.080290 -0.078178 -0.002112 
112.500000 -0.051829 -0.053260 0.001431 
113.281000 0.001486 -0.002622 0.004108 
114.062000 0.050788 0.046772 0.004015 
114.844000 0.071848 0.070022 0.001825 
115.625000 0.056213 0.056825 -0.000612 
116.406000 0.013479 0.015816 -0.002337 
117.188000 -0.033728 -0.030620 -0.003108 
117.969000 -0.061015 -0.058573 -0.002442 
118.750000 -0.055294 -0.055082 -0.000213 
119.531000 -0.021670 -0.024006 0.002336 
120.312000 0.020495 0.017084 0.003411 
121.094000 0.049256 0.046743 0.002513 
121.875000 0.051504 0.050850 0.000655 
122.656000 0.028161 0.029187 -0.001026 
123.438000 -0.007408 -0.005393 -0.002015 
124.219000 -0.036416 -0.034388 -0.002028 
125.000000 -0.044468 -0.043577 -0.000891 
125.781000 -0.029061 -0.029970 0.000909 
126.562000 -0.000143 -0.002376 0.002233 
127.344000 0.026337 0.024063 0.002274 
128.125000 0.037363 0.036120 0.001243 
128.906000 0.028944 0.029019 -0.000075 
129.688000 0.007044 0.008100 -0.001056 
130.469000 -0.016149 -0.014764 -0.001385 
131.250000 -0.028748 -0.027818 -0.000930 
132.031000 -0.025316 -0.025441 0.000125 
132.812000 -0.009227 -0.010405 0.001179 
133.594000 0.009977 0.008384 0.001594 
134.375000 0.022258 0.021041 0.001217 
135.156000 0.022234 0.021833 0.000401 
135.938000 0.011274 0.011650 -0.000377 
136.719000 -0.003931 -0.003143 -0.000789 
137.500000 -0.015231 -0.014537 -0.000694 
138.281000 -0.017314 -0.017155 -0.000159 
139.062000 -0.010186 -0.010703 0.000516 
139.844000 0.001411 0.000470 0.000940 
140.625000 0.011038 0.010134 0.000903 
141.406000 0.014081 0.013582 0.000499 
142.188000 0.009837 0.009841 -0.000005 
142.969000 0.001362 0.001716 -0.000354 
143.750000 -0.006520 -0.006109 -0.000411 
144.531000 -0.009881 -0.009701 -0.000180 
145.312000 -0.007600 -0.007796 0.000196 
146.094000 -0.001599 -0.002098 0.000500 
146.875000 0.004556 0.003982 0.000574 
147.656000 0.007717 0.007304 0.000413 
148.438000 0.006698 0.006561 0.000138 
149.219000 0.002606 0.002704 -0.000098 
150.000000 -0.002049 -0.001862 -0.000187 
150.781000 -0.004815 -0.004707 -0.000107 
151.562000 -0.004556 -0.004635 0.000079 
152.344000 -0.001851 -0.002111 0.000260 
153.125000 0.001551 0.001210 0.000341 
153.906000 0.003808 0.003516 0.000292 
154.688000 0.003941 0.003781 0.000160 
155.469000 0.002211 0.002187 0.000024 
156.250000 -0.000214 -0.000167 -0.000047 
157.031000 -0.001985 -0.001955 -0.000030 
157.812000 -0.002301 -0.002354 0.000053 
158.594000 -0.001231 -0.001380 0.000149 
159.375000 0.000451 0.000246 0.000205 
160.156000 0.001784 0.001587 0.000197 
160.938000 0.002139 0.001999 0.000140 
161.719000 0.001499 0.001428 0.000071 
162.500000 0.000352 0.000326 0.000026 
163.281000 -0.000624 -0.000648 0.000023 
164.062000 -0.000962 -0.001019 0.000057 
164.844000 -0.000593 -0.000696 0.000103 
165.625000 0.000167 0.000032 0.000134 
166.406000 0.000862 0.000725 0.000137 
167.188000 0.001142 0.001027 0.000115 
167.969000 0.000938 0.000856 0.000082 
168.750000 0.000438 0.000380 0.000058 
169.531000 -0.000046 -0.000098 0.000052 
170.312000 -0.000269 -0.000334 0.000065 
171.094000 -0.000161 -0.000246 0.000085 
171.875000 0.000160 0.000059 0.000101 
172.656000 0.000492 0.000388 0.000105 
173.438000 0.000658 0.000562 0.000096 
174.219000 0.000604 0.000522 0.000082 
175.000000 0.000396 0.000326 0.000070 
175.781000 0.000170 0.000104 0.000066 
176.562000 0.000045 -0.000025 0.000070 
177.344000 0.000067 -0.000011 0.000078 
178.125000 0.000195 0.000109 0.000085 
178.906000 0.000345 0.000257 0.000088 
179.688000 0.000433 0.000348 0.000085 
180.469000 0.000428 0.000349 0.000079 
181.250000 0.000350 0.000277 0.000073 
182.031000 0.000256 0.000185 0.000071 
182.812000 0.000197 0.000125 0.000072 
183.594000 0.000200 0.000124 0.000076 
184.375000 0.000247 0.000169 0.000079 
185.156000 0.000308 0.000228 0.000080 
185.938000 0.000343 0.000264 0.000079 
186.719000 0.000339 0.000263 0.000076 
187.500000 0.000301 0.000227 0.000074 
188.281000 0.000255 0.000183 0.000072 
189.062000 0.000222 0.000150 0.000072 
189.844000 0.000221 0.000147 0.000074 
190.625000 0.000242 0.000167 0.000075 
191.406000 0.000278 0.000203 0.000076 
192.188000 0.000307 0.000232 0.000075 
192.969000 0.000325 0.000250 0.000075 
193.750000 0.000324 0.000250 0.000074 
194.531000 0.000318 0.000244 0.000074 
195.312000 0.000306 0.000232 0.000074 
196.094000 0.000301 0.000226 0.000075 
196.875000 0.000292 0.000217 0.000075 
197.656000 0.000285 0.000209 0.000075 
198.438000 0.000265 0.000190 0.000075 
199.219000 0.000245 0.000171 0.000074 
