# Probe 0 (-0.11 1e-06 -0.285)
# Probe 1 (-0.11 1e-06 -0.185)
# Probe 2 (-0.11 1e-06 -0.085)
# Probe 3 (-0.11 1e-06 0.015)
# Probe 4 (-0.11 1e-06 0.115)
# Probe 5 (-0.1034672 0.03772321 -0.085)
# Probe 6 (1e-05 0.11 -0.085)
# Probe 7 (0.11 1e-06 -0.085)
#        Probe              0              1              2              3              4              5              6              7
#         Time
        28.001       2806.789       1905.496       965.9311       6.862781     -0.9275894       965.5161       959.2749       949.8268
        28.002       2803.394       1903.459       964.7166       11.15661      -1.055216        964.311       956.5646       948.5641
        28.003       2809.715        1907.73       967.3333       7.321738     -0.9241585       966.8916       960.1978       950.6346
        28.004       2804.206       1904.265       965.5442       11.40094      -1.049118       965.1198       957.1663        949.109
        28.005       2809.737       1907.828        967.485       7.568483     -0.9295288       967.0484       960.4162       951.0721
        28.006       2804.937       1904.855       965.9919       11.33841      -1.042059         965.57       957.7534        949.745
        28.007       2809.857       1908.036       967.7549         7.8363     -0.9345837       967.3257       960.7296        951.511
        28.008       2805.522       1905.358       966.4262       11.28351      -1.036203       966.0079       958.3232       950.3533
        28.009       2809.998       1908.255        968.033       8.090182     -0.9390642       967.6092       961.0505       951.9795
         28.01        2806.11       1905.866        966.868        11.2336      -1.030796        966.453       958.8992       950.9586
        28.011       2810.118       1908.462       968.3117       8.330709     -0.9432718       967.8932       961.3762       952.4458
        28.012       2806.711        1906.39       967.3232        11.1927      -1.025783       966.9121       959.4794       951.5622
        28.013       2810.261       1908.685       968.6022       8.558261      -0.947083       968.1888       961.7137       952.9154
        28.014       2807.291       1906.899       967.7691        11.1616      -1.021188       967.3616       960.0414       952.1577
        28.015       2810.417       1908.918       968.8996         8.7733     -0.9505013       968.4921       962.0622        953.387
        28.016        2807.85       1907.395       968.2079       11.14011      -1.017001       967.8042       960.5993       952.7495
        28.017       2810.588       1909.158       969.1978       8.976596     -0.9535445        968.795        962.409       953.8553
        28.018        2808.39       1907.877       968.6377       11.12781      -1.013173       968.2377       961.1387       953.3226
        28.019       2810.783       1909.416       969.5067       9.169031     -0.9562435       969.1092       962.7754       954.3434
         28.02       2808.907       1908.342       969.0568       11.12399      -1.009687       968.6605       961.6652       953.8904
        28.021       2810.993       1909.681       969.8181       9.351438     -0.9586251       969.4251       963.1402       954.8253
        28.022       2809.403       1908.793        969.467        11.1279       -1.00651       969.0748       962.1851       954.4562
        28.023        2811.22       1909.958       970.1343       9.524593     -0.9607188        969.746       963.5118       955.3095
        28.024       2809.881       1909.231       969.8679       11.13891      -1.003611       969.4797       962.6932       955.0095
        28.025       2811.462       1910.243        970.454       9.689352     -0.9625504       970.0703       963.8894       955.7968
        28.026       2810.338       1909.654       970.2594       11.15636      -1.000972       969.8753       963.1881        955.561
        28.027       2811.717       1910.537       970.7762       9.846302      -0.964143       970.3971       964.2726       956.2806
        28.028        2810.78       1910.066       970.6433       11.17969     -0.9985618       970.2633        963.674       956.1032
        28.029       2811.984       1910.837       971.1009       9.996145     -0.9655238       970.7263       964.6585       956.7714
         28.03       2811.208       1910.467         971.02       11.20821     -0.9963612       970.6442       964.1535        956.649
        28.031        2812.26       1911.143       971.4276       10.13948     -0.9667136       971.0575       965.0482       957.2611
        28.032       2811.621       1910.858       971.3902       11.24153     -0.9943467       971.0188       964.6254       957.1815
        28.033       2812.544       1911.452       971.7544       10.27678      -0.967734       971.3887       965.4397       957.7512
        28.034       2812.024       1911.241       971.7544       11.27894     -0.9924982       971.3874       965.0874       957.7054
        28.035       2812.835       1911.766       972.0822       10.40855     -0.9686008       971.7208       965.8342       958.2463
        28.036       2812.416       1911.617       972.1133       11.32015     -0.9907987       971.7507       965.5452       958.2293
        28.037       2813.132       1912.082       972.4096       10.53526     -0.9693342       972.0527       966.2288       958.7361
        28.038       2812.799       1911.985       972.4669       11.36467     -0.9892334       972.1089       965.9963       958.7482
        28.039       2813.432       1912.399       972.7368       10.65729     -0.9699478       972.3841       966.6226       959.2261
         28.04       2813.174       1912.348       972.8164       11.41218     -0.9877883       972.4629       966.4436       959.2627
        28.041       2813.737       1912.719       973.0636       10.77498     -0.9704564       972.7152       967.0192       959.7174
        28.042       2813.542       1912.705       973.1613       11.46242     -0.9864504       972.8124       966.8829       959.7763
        28.043       2814.044       1913.039       973.3894       10.88852     -0.9708693       973.0454       967.4156       960.2066
        28.044       2813.903       1913.056       973.5017       11.51482     -0.9852101       973.1571       967.3184       960.2841
        28.045       2814.354        1913.36       973.7142       10.99881     -0.9711953       973.3746       967.8123       960.6934
        28.046       2814.257       1913.403       973.8386        11.5693     -0.9840554       973.4987        967.748       960.7867
        28.047       2814.666       1913.682       974.0384       11.10552     -0.9714441       973.7032       968.2097       961.1826
        28.048       2814.607       1913.746       974.1722       11.62557      -0.982979       973.8368       968.1744       961.2914
        28.049       2814.978       1914.002       974.3604       11.20909     -0.9716263       974.0297       968.6053       961.6664
         28.05       2814.952       1914.085       974.5019       11.68346     -0.9819722       974.1711       968.5961       961.7894
        28.051        2815.29       1914.322       974.6812       11.30976     -0.9717499       974.3549       969.0006       962.1508
        28.052       2815.294        1914.42       974.8292       11.74272     -0.9810266       974.5031       969.0151       962.2858
        28.053       2815.603       1914.642            975       11.40776     -0.9718228       974.6781       969.3939       962.6309
        28.054        2815.63       1914.752        975.153       11.80317     -0.9801386       974.8314        969.429       962.7787
        28.055       2815.916       1914.961       975.3177       11.50328     -0.9718485       975.0003       969.7884        963.113
        28.056       2815.964       1915.081       975.4739       11.86467     -0.9793001       975.1569       969.8402         963.27
        28.057       2816.229       1915.278       975.6331       11.59652     -0.9718318       975.3203       970.1803       963.5909
        28.058       2816.293       1915.407       975.7919       11.92707     -0.9785071       975.4795       970.2468       963.7562
        28.059       2816.541       1915.594       975.9465       11.68765     -0.9717772       975.6382       970.5709       964.0692
         28.06        2816.62        1915.73       976.1072       11.99024     -0.9777565       975.7994       970.6508       964.2406
        28.061       2816.852       1915.908       976.2577       11.77684     -0.9716888       975.9538       970.9596       964.5444
        28.062       2816.944        1916.05         976.42        12.0541      -0.977045       976.1167       971.0517       964.7225
        28.063       2817.162       1916.222        976.567       11.86421     -0.9715703       976.2676       971.3461       965.0168
        28.064       2817.264       1916.368         976.73       12.11847     -0.9763687       976.4314       971.4499       965.2015
        28.065       2817.471       1916.533       976.8743       11.94983     -0.9714258       976.5793       971.7313       965.4878
        28.066       2817.582       1916.682       977.0374       12.18318     -0.9757239       976.7434       971.8442       965.6776
        28.067        2817.78       1916.843       977.1793       12.03373     -0.9712598       976.8888       972.1146       965.9573
        28.068       2817.897       1916.995       977.3425       12.24822     -0.9751067       977.0531       972.2358       966.1508
        28.069       2818.086       1917.151       977.4822       12.11615     -0.9710728       977.1963       972.4959       966.4238
         28.07        2818.21       1917.305        977.645       12.31352     -0.9745139       977.3603       972.6244       966.6211
        28.071       2818.392       1917.457       977.7832       12.19718     -0.9708677       977.5019       972.8756        966.889
        28.072        2818.52       1917.613       977.9452       12.37903     -0.9739449       977.6651       973.0103       967.0893
        28.073       2818.695       1917.762       978.0816       12.27691     -0.9706461       977.8048       973.2531       967.3516
        28.074       2818.828       1917.918        978.243        12.4447     -0.9733966       977.9675       973.3936        967.555
        28.075       2818.998       1918.065       978.3784       12.35547     -0.9704106       978.1061       973.6288       967.8121
        28.076       2819.134       1918.221       978.5385       12.51051     -0.9728688       978.2677       973.7736       968.0176
        28.077       2819.299       1918.365       978.6726       12.43293     -0.9701636        978.405       974.0021       968.2701
        28.078       2819.437       1918.522       978.8313       12.57643     -0.9723579       978.5652       974.1512       968.4776
        28.079       2819.598       1918.665       978.9647       12.50939     -0.9699062       978.7016       974.3735       968.7265
         28.08       2819.738        1918.82       979.1218       12.64243     -0.9718647       978.8602       974.5258       968.9348
        28.081       2819.896       1918.962       979.2547       12.58494     -0.9696382       978.9961       974.7431       969.1804
        28.082       2820.037       1919.117       979.4102       12.70849     -0.9713861       979.1531       974.8979       969.3896
        28.083       2820.192       1919.257       979.5422       12.65963     -0.9693641       979.2881       975.1102       969.6321
        28.084       2820.333       1919.411       979.6962        12.7746     -0.9709203       979.4438       975.2673       969.8419
        28.085       2820.486        1919.55       979.8277       12.73353     -0.9690836       979.5783       975.4754       970.0815
        28.086       2820.628       1919.703       979.9799       12.84071     -0.9704677       979.7321        975.634       970.2914
        28.087       2820.779       1919.841        980.111       12.80669     -0.9687979       979.8661       975.8382       970.5283
        28.088       2820.921       1919.993       980.2614       12.90682     -0.9700271       980.0183       975.9982       970.7385
        28.089       2821.069        1920.13       980.3916       12.87918     -0.9685076       980.1514       976.1985       970.9728
         28.09       2821.211       1920.281       980.5405       12.97293     -0.9695969       980.3022       976.3597        971.183
        28.091       2821.358       1920.417       980.6705       12.95105     -0.9682128        980.435       976.5569       971.4149
        28.092         2821.5       1920.567       980.8177       13.03901     -0.9691774       980.5845       976.7185       971.6245
        28.093       2821.645       1920.702       980.9468       13.02233     -0.9679152       980.7157       976.9123       971.8541
        28.094       2821.786        1920.85       981.0922       13.10505     -0.9687671       980.8629       977.0746       972.0637
        28.095        2821.93       1920.985       981.2209       13.09309     -0.9676161       980.9943       977.2656       972.2907
        28.096       2822.071       1921.132       981.3648       13.17106     -0.9683662         981.14       977.4283       972.5003
        28.097       2822.213       1921.266       981.4928       13.16335     -0.9673159       981.2708       977.6164        972.725
        28.098       2822.354       1921.411        981.635       13.23704     -0.9679731        981.415       977.7792       972.9341
        28.099       2822.495       1921.545       981.7626       13.23318     -0.9670114       981.5451       977.9651        973.157
          28.1       2822.634       1921.689       981.9033       13.30298     -0.9675882       981.6878       978.1283       973.3658
        28.101       2822.774       1921.821       982.0302       13.30262     -0.9667067       981.8173       978.3115       973.5865
        28.102       2822.913       1921.964        982.169       13.36889     -0.9672108       981.9581       978.4742       973.7943
        28.103       2823.052       1922.097       982.2958       13.37181     -0.9662928       982.0875       978.6552       974.0134
        28.104       2823.189       1922.237       982.4326       13.43474     -0.9668824       982.2263       978.8176       974.2202
        28.105       2823.327       1922.369       982.5586       13.44054     -0.9660216       982.3549       978.9964       974.4375
        28.106       2823.464       1922.508        982.694       13.50065     -0.9665179       982.4924       979.1585       974.6436
        28.107       2823.601       1922.639       982.8194       13.50906     -0.9657295       982.6203        979.335       974.8585
        28.108       2823.736       1922.777       982.9532       13.56658     -0.9661574       982.7561       979.4968       975.0638
        28.109       2823.872       1922.907       983.0776       13.57737     -0.9654332       982.8829       979.6713       975.2769
         28.11       2824.007       1923.044       983.2102       13.63257     -0.9658027       983.0177       979.8326       975.4817
        28.111       2824.141       1923.173       983.3339       13.64552     -0.9651354       983.1439       980.0053       975.6933
        28.112       2824.275       1923.309       983.4651        13.6986     -0.9654544       983.2771       980.1662       975.8972
        28.113       2824.409       1923.437        983.588       13.71349     -0.9648381       983.4025       980.3369       976.1072
        28.114       2824.542       1923.572       983.7179       13.76468      -0.965112       983.5345        980.497       976.3099
        28.115       2824.674       1923.699         983.84       13.78132     -0.9645418        983.659       980.6659       976.5179
        28.116       2824.807       1923.832       983.9685       13.83074     -0.9647753       983.7897       980.8254       976.7197
        28.117       2824.937       1923.959       984.0896       13.84885     -0.9642459       983.9132       980.9924        976.926
        28.118       2825.069       1924.091       984.2166        13.8963     -0.9644442       984.0423        981.151       977.1267
        28.119       2825.199       1924.216        984.337       13.91637     -0.9639523       984.1651       981.3164       977.3318
         28.12        2825.33       1924.347       984.4629        13.9657     -0.9641173       984.2932       981.4744       977.5319
        28.121       2825.458       1924.472       984.5822        13.9868     -0.9636591       984.4148        981.638       977.7353
        28.122       2825.588       1924.602       984.7069       14.03185     -0.9637952       984.5417       981.7953       977.9341
        28.123       2825.716       1924.726       984.8254       14.05401     -0.9633685       984.6625       981.9573       978.1355
        28.124       2825.845       1924.854       984.9486       14.09818     -0.9634783       984.7879       982.1134       978.3332
        28.125       2825.971       1924.977       985.0663        14.1216     -0.9630791       984.9079       982.2738       978.5332
        28.126       2826.099       1925.104       985.1883       14.16486     -0.9631656       985.0322       982.4292       978.7299
        28.127       2826.225       1925.226       985.3049       14.18929     -0.9627931       985.1511       982.5881       978.9283
        28.128       2826.352       1925.352       985.4256       14.23164     -0.9628579        985.274       982.7423       979.1235
        28.129       2826.476       1925.473       985.5412       14.25693      -0.962507       985.3919       982.8994         979.32
         28.13       2826.602       1925.598       985.6605       14.29855      -0.962553       985.5135       983.0527       979.5144
        28.131       2826.726       1925.718       985.7755       14.32469     -0.9622238       985.6306       983.2086       979.7105
        28.132       2826.851       1925.842       985.8938       14.36548     -0.9622549       985.7511       983.3608       979.9032
        28.133       2826.973       1925.961       986.0078        14.3926     -0.9619448       985.8674       983.5153       980.0982
        28.134       2827.097       1926.084       986.1249       14.43283     -0.9619588       985.9867       983.6667       980.2907
        28.135       2827.219       1926.202       986.2376       14.46047      -0.961667       986.1017       983.8196       980.4836
        28.136       2827.342       1926.323       986.3535       14.50003     -0.9616683       986.2197       983.9696       980.6738
        28.137       2827.462       1926.441       986.4653       14.52826     -0.9613924       986.3338        984.121       980.8646
        28.138       2827.584       1926.561       986.5799       14.56733     -0.9613807       986.4507       984.2701       981.0541
        28.139       2827.703       1926.677       986.6908       14.59612     -0.9611185       986.5639       984.4202       981.2436
         28.14       2827.824       1926.796       986.8042       14.63473     -0.9610964       986.6794       984.5682       981.4316
        28.141       2827.943       1926.912       986.9145       14.66403     -0.9608483        986.792        984.717       981.6201
        28.142       2828.063        1927.03       987.0266       14.70221     -0.9608166       986.9062       984.8637       981.8067
        28.143        2828.18       1927.144       987.1358         14.732     -0.9605808       987.0178       985.0111       981.9933
        28.144       2828.299       1927.261       987.2468       14.76982     -0.9605404       987.1309       985.1567       982.1791
        28.145       2828.416       1927.375       987.3551       14.80007     -0.9603158       987.2414        985.303       982.3651
        28.146       2828.534        1927.49       987.4649       14.83756      -0.960267       987.3534       985.4476       982.5493
        28.147       2828.649       1927.603        987.572       14.86819     -0.9600539       987.4628       985.5925       982.7329
        28.148       2828.766       1927.718       987.6807       14.90539     -0.9599981       987.5737       985.7359       982.9157
        28.149       2828.881       1927.829       987.7869       14.93636      -0.959794       987.6821       985.8796       983.0987
         28.15       2828.997       1927.943       987.8946       14.97332     -0.9597323        987.792       986.0216       983.2797
        28.151        2829.11       1928.053       987.9997       15.00467     -0.9595374       987.8993       986.1637       983.4603
        28.152       2829.225       1928.166        988.106       15.04138     -0.9594705       988.0079       986.3048       983.6417
        28.153       2829.338       1928.275       988.2103       15.07302     -0.9592835       988.1144       986.4458       983.8225
        28.154       2829.451       1928.387       988.3156       15.10943     -0.9592119       988.2219       986.5856       984.0012
        28.155       2829.563       1928.495       988.4187       15.14154     -0.9590317       988.3271       986.7253       984.1796
        28.156       2829.676       1928.605       988.5228       15.17786      -0.958956       988.4334       986.8639       984.3569
        28.157       2829.786       1928.713       988.6249       15.21006     -0.9587825       988.5377       987.0024       984.5339
        28.158       2829.898       1928.822       988.7281       15.24623      -0.958704       988.6431       987.1397       984.7099
        28.159       2830.008       1928.929       988.8291       15.27862     -0.9585367       988.7463       987.2768       984.8854
         28.16       2830.118       1929.037       988.9311       15.31465     -0.9584538       988.8504        987.413       985.0602
        28.161       2830.227       1929.142       989.0313       15.34725      -0.958293       988.9529        987.549       985.2344
        28.162       2830.337       1929.249       989.1322       15.38314     -0.9582074        989.056        987.684       985.4074
        28.163       2830.444       1929.354       989.2314       15.41595      -0.958052       989.1573       987.8186       985.5799
        28.164       2830.553        1929.46        989.331       15.45171     -0.9579645       989.2591       987.9524       985.7518
        28.165        2830.66       1929.564       989.4291        15.4847     -0.9578139       989.3594       988.0857       985.9235
        28.166       2830.767       1929.668       989.5278       15.52034     -0.9577241       989.4602       988.2182        986.094
        28.167       2830.873       1929.771       989.6248       15.55349     -0.9575781       989.5595       988.3505       986.2641
        28.168       2830.979       1929.874       989.7223       15.58907     -0.9574867        989.659       988.4818       986.4334
        28.169       2831.084       1929.976       989.8184       15.62239     -0.9573464       989.7573       988.6128       986.6016
         28.17        2831.19       1930.079        989.915        15.6579     -0.9572532       989.8561        988.743       986.7695
        28.171       2831.294        1930.18         990.01       15.69137      -0.957117       989.9532       988.8726       986.9366
        28.172       2831.398       1930.281       990.1053       15.72684     -0.9570227       990.0508       989.0016        987.103
        28.173       2831.501       1930.381       990.1994       15.76045     -0.9568903        990.147         989.13       987.2687
        28.174       2831.604       1930.481       990.2938       15.79587     -0.9567947       990.2435       989.2577       987.4337
        28.175       2831.706        1930.58       990.3866       15.82963     -0.9566654       990.3384       989.3849       987.5981
        28.176       2831.808       1930.679         990.48       15.86502     -0.9565686       990.4339       989.5115       987.7618
        28.177       2831.909       1930.777       990.5721        15.8989     -0.9564427       990.5282       989.6375       987.9247
        28.178       2832.011       1930.875       990.6642       15.93423      -0.956346       990.6224       989.7628       988.0871
        28.179        2832.11       1930.972       990.7551       15.96819      -0.956223       990.7155       989.8876       988.2485
         28.18       2832.211       1931.069       990.8463       16.00348     -0.9561258       990.8088       990.0117       988.4094
        28.181        2832.31       1931.165       990.9363       16.03753      -0.956006       990.9009       990.1351       988.5695
        28.182       2832.409       1931.261       991.0262       16.07277     -0.9559092        990.993        990.258       988.7289
        28.183       2832.507       1931.356       991.1151       16.10687     -0.9557918        991.084       990.3804       988.8879
        28.184       2832.605       1931.451       991.2041       16.14204     -0.9556946        991.175       990.5021        989.046
        28.185       2832.702       1931.545        991.292       16.17619     -0.9555805        991.265       990.6232       989.2033
        28.186       2832.799       1931.639         991.38       16.21129     -0.9554847       991.3551       990.7438       989.3599
        28.187       2832.895       1931.731       991.4669       16.24547     -0.9553716        991.444       990.8637       989.5156
        28.188       2832.991       1931.824       991.5538       16.28051     -0.9552769       991.5331       990.9831       989.6709
        28.189       2833.086       1931.916       991.6397       16.31469     -0.9551659       991.6211       991.1017       989.8253
         28.19       2833.181       1932.008       991.7255       16.34966      -0.955072        991.709       991.2198       989.9792
        28.191       2833.275       1932.099       991.8104       16.38384     -0.9549629       991.7959       991.3373       990.1322
        28.192       2833.369        1932.19       991.8951       16.41873     -0.9548688       991.8827       991.4544       990.2847
        28.193       2833.462        1932.28       991.9792       16.45288     -0.9547606        991.969       991.5705       990.4363
        28.194       2833.556       1932.369       992.0628       16.48768      -0.954668       992.0545       991.6861       990.5873
        28.195       2833.648       1932.458       992.1458       16.52182     -0.9545617       992.1397        991.801       990.7376
        28.196        2833.74       1932.547       992.2286        16.5565       -0.95447       992.2246       991.9156       990.8873
        28.197       2833.831       1932.635       992.3104       16.59059     -0.9543664       992.3084       992.0294       991.0361
        28.198       2833.922       1932.722       992.3918       16.62516     -0.9542753       992.3918       992.1427        991.184
        28.199       2834.011       1932.809       992.4726       16.65919     -0.9541725       992.4747       992.2552       991.3317
          28.2       2834.102       1932.896       992.5533       16.69365     -0.9540824       992.5574       992.3671       991.4786
        28.201        2834.19       1932.981       992.6331       16.72761     -0.9539821       992.6394       992.4788       991.6244
        28.202        2834.28       1933.067       992.7128       16.76196     -0.9538919       992.7211       992.5897         991.77
        28.203       2834.368       1933.152       992.7916       16.79582     -0.9537936       992.8019          992.7       991.9145
        28.204       2834.456       1933.236       992.8703       16.83003     -0.9537038       992.8826       992.8097       992.0586
        28.205       2834.542        1933.32       992.9481        16.8638     -0.9536076       992.9624       992.9188       992.2018
        28.206        2834.63       1933.404       993.0257       16.89786     -0.9535193        993.042       993.0272       992.3444
        28.207       2834.716       1933.487       993.1024        16.9315     -0.9534253       993.1208       993.1351       992.4861
        28.208       2834.802       1933.569        993.179       16.96541     -0.9533367       993.1993       993.2425       992.6274
        28.209       2834.887       1933.651       993.2547       16.99891     -0.9532426        993.277       993.3491       992.7677
         28.21       2834.971       1933.732       993.3303       17.03263     -0.9531553       993.3545       993.4552       992.9076
        28.211       2835.055       1933.813        993.405         17.066     -0.9530633       993.4313       993.5608       993.0468
        28.212        2835.14       1933.894       993.4798       17.09953      -0.952977        993.508       993.6657        993.185
        28.213       2835.223       1933.974       993.5536       17.13274     -0.9528865       993.5837       993.7701       993.3226
        28.214       2835.305       1934.053       993.6271        17.1661     -0.9528011       993.6591       993.8739       993.4595
        28.215       2835.388       1934.132       993.6999       17.19913     -0.9527118       993.7339        993.977       993.5955
        28.216        2835.47        1934.21       993.7723       17.23229      -0.952628       993.8083       994.0794       993.7313
        28.217       2835.551       1934.288       993.8441       17.26515     -0.9525406        993.882       994.1817        993.866
        28.218       2835.632       1934.366       993.9158       17.29808     -0.9524578       993.9557       994.2831       994.0001
        28.219       2835.712       1934.443       993.9866       17.33073     -0.9523721       994.0284       994.3841       994.1335