# Forces      
# CofR        : (0.0000000e+00 0.0000000e+00 0.0000000e+00)
# Time        forces(pressure viscous porous)	moments(pressure viscous porous)
0.001         	((-1.1076112e-02 -3.7258389e-03 1.4895524e+03) (-2.6664578e-08 1.4790266e-07 -4.9246934e-02) (0.0000000e+00 0.0000000e+00 0.0000000e+00)) ((-1.2695791e-03 7.6918967e-03 6.6009888e-05) (1.0508070e-07 -5.6319645e-08 2.6446958e-08) (0.0000000e+00 0.0000000e+00 0.0000000e+00))
0.002         	((2.9511690e-03 9.0748677e-04 3.2404422e+03) (-6.0646111e-08 2.1878655e-07 -4.9867601e-02) (0.0000000e+00 0.0000000e+00 0.0000000e+00)) ((-8.1856308e-03 -3.4331029e-02 3.1309007e-05) (1.5935775e-07 1.5408369e-07 3.6563795e-08) (0.0000000e+00 0.0000000e+00 0.0000000e+00))
0.003         	((3.1383316e-04 4.0306841e-03 3.9985353e+03) (-2.8177803e-08 2.1059166e-07 -4.9482911e-02) (0.0000000e+00 0.0000000e+00 0.0000000e+00)) ((4.0064019e-03 4.1723468e-02 -8.5078116e-06) (1.6637987e-07 2.1521780e-07 2.4785440e-08) (0.0000000e+00 0.0000000e+00 0.0000000e+00))
0.004         	((-3.3688810e-03 -1.6654787e-03 3.3661130e+03) (9.9734994e-08 2.2609392e-07 -4.9023794e-02) (0.0000000e+00 0.0000000e+00 0.0000000e+00)) ((-2.1895946e-03 3.7917783e-03 1.2784852e-06) (1.8648939e-07 6.4877950e-08 1.5825682e-08) (0.0000000e+00 0.0000000e+00 0.0000000e+00))
0.005         	((2.6126049e-03 2.5116048e-03 3.3079866e+03) (1.5393484e-07 2.2067536e-07 -4.8985608e-02) (0.0000000e+00 0.0000000e+00 0.0000000e+00)) ((-2.3163216e-04 2.0388087e-03 -5.3127889e-07) (1.9534690e-07 3.9801349e-08 1.4053019e-08) (0.0000000e+00 0.0000000e+00 0.0000000e+00))
0.006         	((-1.4557365e-04 -1.4903008e-03 3.3264405e+03) (1.9201725e-07 2.5385762e-07 -4.8974826e-02) (0.0000000e+00 0.0000000e+00 0.0000000e+00)) ((-2.1054269e-03 3.9215920e-03 9.2755349e-07) (1.9672972e-07 1.9270819e-08 1.1882181e-08) (0.0000000e+00 0.0000000e+00 0.0000000e+00))
0.007         	((-4.0990745e-04 -5.1502709e-04 3.3201626e+03) (2.2654869e-07 2.7832395e-07 -4.8952301e-02) (0.0000000e+00 0.0000000e+00 0.0000000e+00)) ((-1.2369758e-03 3.2752388e-03 5.5151915e-07) (2.0046010e-07 9.8196568e-10 1.2241161e-08) (0.0000000e+00 0.0000000e+00 0.0000000e+00))
0.008         	((-4.7301280e-05 -2.6595926e-04 3.3311312e+03) (2.5124614e-07 2.9144970e-07 -4.8925954e-02) (0.0000000e+00 0.0000000e+00 0.0000000e+00)) ((-9.2515035e-04 2.6572709e-03 2.2374628e-07) (2.0361049e-07 -1.5457551e-08 1.2382927e-08) (0.0000000e+00 0.0000000e+00 0.0000000e+00))
0.009         	((-1.2086486e-03 -8.5285048e-04 3.3213297e+03) (2.6827835e-07 3.0532122e-07 -4.8900449e-02) (0.0000000e+00 0.0000000e+00 0.0000000e+00)) ((-2.0078016e-03 4.8633894e-03 7.3921564e-08) (2.0637894e-07 -2.7779060e-08 1.2178783e-08) (0.0000000e+00 0.0000000e+00 0.0000000e+00))
0.01          	((3.8133472e-03 1.7925571e-03 3.3337449e+03) (2.8557535e-07 3.2036603e-07 -4.8872795e-02) (0.0000000e+00 0.0000000e+00 0.0000000e+00)) ((8.3903725e-04 -2.3529190e-03 -1.5829409e-07) (2.0977616e-07 -4.0761605e-08 1.2358601e-08) (0.0000000e+00 0.0000000e+00 0.0000000e+00))
0.011         	((-5.3926489e-03 -2.8130966e-03 3.3220233e+03) (2.9764846e-07 3.3237493e-07 -4.8846221e-02) (0.0000000e+00 0.0000000e+00 0.0000000e+00)) ((-4.5803575e-03 1.1007971e-02 -2.3170854e-07) (2.1081166e-07 -4.7990279e-08 1.2490305e-08) (0.0000000e+00 0.0000000e+00 0.0000000e+00))
0.012         	((-5.8512763e-03 9.5280520e-03 3.3350853e+03) (3.0336076e-07 3.4866411e-07 -4.8818480e-02) (0.0000000e+00 0.0000000e+00 0.0000000e+00)) ((1.3151045e-02 7.9323649e-03 -4.1876465e-07) (2.1925332e-07 -4.8712289e-08 1.2616015e-08) (0.0000000e+00 0.0000000e+00 0.0000000e+00))
0.013         	((1.1849042e-02 -1.5059534e-02 3.3228130e+03) (3.1874859e-07 3.5754197e-07 -4.8791435e-02) (0.0000000e+00 0.0000000e+00 0.0000000e+00)) ((-2.2340569e-02 -9.7499243e-03 -4.1521256e-07) (2.1669623e-07 -6.0152912e-08 1.2774639e-08) (0.0000000e+00 0.0000000e+00 0.0000000e+00))
0.014         	((-8.0184161e-03 1.1055629e-02 3.3351296e+03) (3.3094042e-07 3.6642763e-07 -4.8764384e-02) (0.0000000e+00 0.0000000e+00 0.0000000e+00)) ((1.4624786e-02 1.0806912e-02 -6.1367417e-07) (2.1579659e-07 -6.8624315e-08 1.2864499e-08) (0.0000000e+00 0.0000000e+00 0.0000000e+00))
0.015         	((2.2376235e-03 -8.5489322e-03 3.3237610e+03) (3.3756582e-07 3.7805233e-07 -4.8737622e-02) (0.0000000e+00 0.0000000e+00 0.0000000e+00)) ((-1.2442014e-02 1.4269392e-03 -5.7358796e-07) (2.1956342e-07 -7.0702612e-08 1.2993371e-08) (0.0000000e+00 0.0000000e+00 0.0000000e+00))
0.016         	((-3.2413541e-03 1.1785918e-02 3.3346788e+03) (3.4630814e-07 3.9044806e-07 -4.8711306e-02) (0.0000000e+00 0.0000000e+00 0.0000000e+00)) ((1.5651712e-02 4.9236109e-03 -7.2474200e-07) (2.2467914e-07 -7.5619308e-08 1.3178855e-08) (0.0000000e+00 0.0000000e+00 0.0000000e+00))
0.017         	((5.3020857e-03 -6.7950555e-03 3.3245853e+03) (3.5612659e-07 4.0210195e-07 -4.8685188e-02) (0.0000000e+00 0.0000000e+00 0.0000000e+00)) ((-1.2745051e-02 -3.2884976e-03 -6.9594500e-07) (2.2831946e-07 -8.2977249e-08 1.3325276e-08) (0.0000000e+00 0.0000000e+00 0.0000000e+00))
0.018         	((-1.9020486e-03 5.2612859e-03 3.3340881e+03) (3.6577955e-07 4.0973808e-07 -4.8659623e-02) (0.0000000e+00 0.0000000e+00 0.0000000e+00)) ((1.0476850e-02 3.8901451e-03 -8.1158258e-07) (2.2988318e-07 -9.0162446e-08 1.3458341e-08) (0.0000000e+00 0.0000000e+00 0.0000000e+00))
0.019         	((-2.5754902e-03 -1.1276098e-02 3.3252443e+03) (3.7087414e-07 4.1383993e-07 -4.8634262e-02) (0.0000000e+00 0.0000000e+00 0.0000000e+00)) ((-2.0603888e-02 6.5388870e-03 -7.7760963e-07) (2.2610886e-07 -9.1608635e-08 1.3643445e-08) (0.0000000e+00 0.0000000e+00 0.0000000e+00))
0.02          	((2.0007225e-03 1.1856311e-02 3.3335108e+03) (3.7770045e-07 4.2138304e-07 -4.8609412e-02) (0.0000000e+00 0.0000000e+00 0.0000000e+00)) ((1.8042959e-02 -1.1053794e-03 -8.8763478e-07) (2.2734524e-07 -9.5788835e-08 1.3864195e-08) (0.0000000e+00 0.0000000e+00 0.0000000e+00))
0.021         	((-4.8267082e-03 -1.2766845e-02 3.3257728e+03) (3.8238628e-07 4.2650448e-07 -4.8584764e-02) (0.0000000e+00 0.0000000e+00 0.0000000e+00)) ((-2.0018718e-02 1.0471466e-02 -8.3799556e-07) (2.2796802e-07 -9.6880287e-08 1.4089280e-08) (0.0000000e+00 0.0000000e+00 0.0000000e+00))
0.022         	((6.4293355e-03 1.1540222e-02 3.3329531e+03) (3.9016820e-07 4.3163523e-07 -4.8560604e-02) (0.0000000e+00 0.0000000e+00 0.0000000e+00)) ((1.5986458e-02 -8.3163357e-03 -9.3850209e-07) (2.2822452e-07 -1.0263526e-07 1.4346325e-08) (0.0000000e+00 0.0000000e+00 0.0000000e+00))
0.023         	((-7.3872121e-03 -1.0458420e-02 3.3261891e+03) (3.9570916e-07 4.3745431e-07 -4.8536654e-02) (0.0000000e+00 0.0000000e+00 0.0000000e+00)) ((-1.5995053e-02 1.4428351e-02 -9.0220266e-07) (2.2973505e-07 -1.0510283e-07 1.4645038e-08) (0.0000000e+00 0.0000000e+00 0.0000000e+00))
0.024         	((8.7681444e-03 8.4101399e-03 3.3324436e+03) (4.0278107e-07 4.4219047e-07 -4.8513137e-02) (0.0000000e+00 0.0000000e+00 0.0000000e+00)) ((9.5367429e-03 -1.2120339e-02 -9.7998426e-07) (2.2827187e-07 -1.1041812e-07 1.4966042e-08) (0.0000000e+00 0.0000000e+00 0.0000000e+00))
0.025         	((-8.4287356e-03 -5.3468367e-03 3.3265620e+03) (4.0876198e-07 4.4915571e-07 -4.8489778e-02) (0.0000000e+00 0.0000000e+00 0.0000000e+00)) ((-5.7205118e-03 1.7333173e-02 -9.4997164e-07) (2.3231177e-07 -1.1285121e-07 1.5298883e-08) (0.0000000e+00 0.0000000e+00 0.0000000e+00))
0.026         	((8.6839188e-03 -1.4882855e-03 3.3319493e+03) (4.1506663e-07 4.5051279e-07 -4.8466844e-02) (0.0000000e+00 0.0000000e+00 0.0000000e+00)) ((-7.0467428e-03 -1.3738095e-02 -1.0028270e-06) (2.2683546e-07 -1.1717433e-07 1.5646995e-08) (0.0000000e+00 0.0000000e+00 0.0000000e+00))
0.027         	((-1.1958691e-02 8.7814667e-03 3.3268766e+03) (4.1849504e-07 4.5975428e-07 -4.8444044e-02) (0.0000000e+00 0.0000000e+00 0.0000000e+00)) ((1.4380630e-02 2.3069960e-02 -9.9733801e-07) (2.3307534e-07 -1.1682946e-07 1.6011320e-08) (0.0000000e+00 0.0000000e+00 0.0000000e+00))
0.028         	((8.9062622e-03 -1.2321101e-02 3.3315103e+03) (4.2246264e-07 4.6234963e-07 -4.8421618e-02) (0.0000000e+00 0.0000000e+00 0.0000000e+00)) ((-2.0185527e-02 -1.5679372e-02 -1.0203310e-06) (2.3112756e-07 -1.1900162e-07 1.6396038e-08) (0.0000000e+00 0.0000000e+00 0.0000000e+00))
0.029         	((-6.8636971e-03 1.2249125e-02 3.3271342e+03) (4.2873445e-07 4.6726747e-07 -4.8399317e-02) (0.0000000e+00 0.0000000e+00 0.0000000e+00)) ((1.6920720e-02 1.7542897e-02 -1.0269183e-06) (2.3143943e-07 -1.2283662e-07 1.6791600e-08) (0.0000000e+00 0.0000000e+00 0.0000000e+00))
0.03          	((1.3016813e-02 -1.4680502e-02 3.3311034e+03) (4.3795085e-07 4.6994270e-07 -4.8377365e-02) (0.0000000e+00 0.0000000e+00 0.0000000e+00)) ((-2.1266794e-02 -2.4092921e-02 -1.0375060e-06) (2.3024835e-07 -1.3278656e-07 1.7193418e-08) (0.0000000e+00 0.0000000e+00 0.0000000e+00))
0.031         	((-1.5783063e-02 1.1628620e-02 3.3273702e+03) (4.4103712e-07 4.7271877e-07 -4.8355499e-02) (0.0000000e+00 0.0000000e+00 0.0000000e+00)) ((1.4866862e-02 3.2385451e-02 -1.0513302e-06) (2.2877356e-07 -1.3234577e-07 1.7599758e-08) (0.0000000e+00 0.0000000e+00 0.0000000e+00))
0.032         	((1.1465697e-02 -1.0478624e-02 3.3307301e+03) (4.4368216e-07 4.7695617e-07 -4.8333957e-02) (0.0000000e+00 0.0000000e+00 0.0000000e+00)) ((-1.3663622e-02 -2.0168097e-02 -1.0561035e-06) (2.3089483e-07 -1.3115834e-07 1.8000837e-08) (0.0000000e+00 0.0000000e+00 0.0000000e+00))
0.033         	((-1.2951879e-02 7.4885442e-03 3.3275571e+03) (4.4712571e-07 4.7936773e-07 -4.8312502e-02) (0.0000000e+00 0.0000000e+00 0.0000000e+00)) ((8.5367834e-03 2.5707375e-02 -1.0715435e-06) (2.2999817e-07 -1.3260878e-07 1.8420840e-08) (0.0000000e+00 0.0000000e+00 0.0000000e+00))
0.034         	((1.0028151e-02 -2.8299708e-03 3.3304216e+03) (4.5061750e-07 4.8540064e-07 -4.8291313e-02) (0.0000000e+00 0.0000000e+00 0.0000000e+00)) ((-6.4826931e-03 -1.6132506e-02 -1.0816287e-06) (2.3196832e-07 -1.3275247e-07 1.8861461e-08) (0.0000000e+00 0.0000000e+00 0.0000000e+00))
0.035         	((-9.1383003e-03 3.6525620e-03 3.3276870e+03) (4.5567754e-07 4.8945634e-07 -4.8270229e-02) (0.0000000e+00 0.0000000e+00 0.0000000e+00)) ((7.5210513e-03 1.9934222e-02 -1.0816436e-06) (2.3448526e-07 -1.3486217e-07 1.9303384e-08) (0.0000000e+00 0.0000000e+00 0.0000000e+00))
0.036         	((7.9486749e-03 -2.8785360e-03 3.3301694e+03) (4.5970342e-07 4.9293087e-07 -4.8249353e-02) (0.0000000e+00 0.0000000e+00 0.0000000e+00)) ((-8.5350501e-03 -1.0467226e-02 -1.0961776e-06) (2.3510120e-07 -1.3433538e-07 1.9752846e-08) (0.0000000e+00 0.0000000e+00 0.0000000e+00))
0.037         	((-8.0416231e-03 2.0741652e-03 3.3277680e+03) (4.6355502e-07 4.9571453e-07 -4.8228598e-02) (0.0000000e+00 0.0000000e+00 0.0000000e+00)) ((6.6088469e-03 1.3410411e-02 -1.0948757e-06) (2.3586448e-07 -1.3745379e-07 2.0210265e-08) (0.0000000e+00 0.0000000e+00 0.0000000e+00))
0.038         	((6.8388875e-03 -3.2839933e-03 3.3299531e+03) (4.6675620e-07 4.9803753e-07 -4.8208016e-02) (0.0000000e+00 0.0000000e+00 0.0000000e+00)) ((-9.5593395e-03 -6.3228182e-03 -1.1073813e-06) (2.3545383e-07 -1.3837329e-07 2.0673266e-08) (0.0000000e+00 0.0000000e+00 0.0000000e+00))
0.039         	((-7.1375933e-03 2.8846654e-03 3.3278190e+03) (4.6980336e-07 5.0091187e-07 -4.8187558e-02) (0.0000000e+00 0.0000000e+00 0.0000000e+00)) ((6.7104413e-03 1.1083113e-02 -1.1061898e-06) (2.3537627e-07 -1.4019399e-07 2.1138216e-08) (0.0000000e+00 0.0000000e+00 0.0000000e+00))
0.04          	((5.0337807e-03 -3.0797153e-03 3.3297579e+03) (4.7192649e-07 5.0375525e-07 -4.8167252e-02) (0.0000000e+00 0.0000000e+00 0.0000000e+00)) ((-8.2441804e-03 -4.0114735e-03 -1.1173999e-06) (2.3567381e-07 -1.4111003e-07 2.1600979e-08) (0.0000000e+00 0.0000000e+00 0.0000000e+00))
0.041         	((-4.5485737e-03 2.3460839e-03 3.3278597e+03) (4.7499824e-07 5.0630316e-07 -4.8147054e-02) (0.0000000e+00 0.0000000e+00 0.0000000e+00)) ((5.7252484e-03 8.4203440e-03 -1.1146692e-06) (2.3587729e-07 -1.4304216e-07 2.2059766e-08) (0.0000000e+00 0.0000000e+00 0.0000000e+00))
0.042         	((2.8056455e-03 -2.6858022e-03 3.3295714e+03) (4.7668129e-07 5.0863222e-07 -4.8127000e-02) (0.0000000e+00 0.0000000e+00 0.0000000e+00)) ((-7.3219122e-03 -1.5631900e-03 -1.1266605e-06) (2.3616151e-07 -1.4391131e-07 2.2515836e-08) (0.0000000e+00 0.0000000e+00 0.0000000e+00))
0.043         	((-3.3109894e-03 2.2420379e-03 3.3278914e+03) (4.7819407e-07 5.1078115e-07 -4.8107042e-02) (0.0000000e+00 0.0000000e+00 0.0000000e+00)) ((4.8254081e-03 6.8575006e-03 -1.1242810e-06) (2.3620810e-07 -1.4532407e-07 2.2969328e-08) (0.0000000e+00 0.0000000e+00 0.0000000e+00))
0.044         	((1.9975145e-03 -3.0156390e-03 3.3293944e+03) (4.7892536e-07 5.1243431e-07 -4.8087218e-02) (0.0000000e+00 0.0000000e+00 0.0000000e+00)) ((-7.1713154e-03 -6.6190913e-04 -1.1343295e-06) (2.3603400e-07 -1.4646872e-07 2.3418665e-08) (0.0000000e+00 0.0000000e+00 0.0000000e+00))
0.045         	((-2.4491750e-03 2.5303484e-03 3.3279155e+03) (4.7969216e-07 5.1437214e-07 -4.8067478e-02) (0.0000000e+00 0.0000000e+00 0.0000000e+00)) ((4.6962284e-03 5.8765756e-03 -1.1323178e-06) (2.3607475e-07 -1.4788260e-07 2.3866817e-08) (0.0000000e+00 0.0000000e+00 0.0000000e+00))
0.046         	((1.5414946e-03 -2.6783925e-03 3.3292259e+03) (4.7997761e-07 5.1632979e-07 -4.8047866e-02) (0.0000000e+00 0.0000000e+00 0.0000000e+00)) ((-6.3274704e-03 -1.2270226e-04 -1.1399969e-06) (2.3627627e-07 -1.4920677e-07 2.4312890e-08) (0.0000000e+00 0.0000000e+00 0.0000000e+00))
0.047         	((-1.9960168e-03 2.1651801e-03 3.3279315e+03) (4.8018288e-07 5.1806167e-07 -4.8028327e-02) (0.0000000e+00 0.0000000e+00 0.0000000e+00)) ((3.7941213e-03 5.2923592e-03 -1.1381479e-06) (2.3623668e-07 -1.5063931e-07 2.4756342e-08) (0.0000000e+00 0.0000000e+00 0.0000000e+00))
0.048         	((7.2413519e-04 -2.1554548e-03 3.3290676e+03) (4.7967648e-07 5.1972787e-07 -4.8008907e-02) (0.0000000e+00 0.0000000e+00 0.0000000e+00)) ((-5.3121313e-03 1.0990465e-03 -1.1456573e-06) (2.3650344e-07 -1.5149062e-07 2.5198651e-08) (0.0000000e+00 0.0000000e+00 0.0000000e+00))
0.049         	((-1.5839739e-03 1.6734613e-03 3.3279385e+03) (4.7908153e-07 5.2103524e-07 -4.7989551e-02) (0.0000000e+00 0.0000000e+00 0.0000000e+00)) ((2.9094327e-03 4.6291699e-03 -1.1438147e-06) (2.3646735e-07 -1.5258815e-07 2.5641928e-08) (0.0000000e+00 0.0000000e+00 0.0000000e+00))
0.05          	((3.8456569e-04 -1.9164115e-03 3.3289196e+03) (4.7829826e-07 5.2229271e-07 -4.7970305e-02) (0.0000000e+00 0.0000000e+00 0.0000000e+00)) ((-4.7363245e-03 1.6320750e-03 -1.1505143e-06) (2.3654002e-07 -1.5346432e-07 2.6086972e-08) (0.0000000e+00 0.0000000e+00 0.0000000e+00))
0.051         	((-8.2918817e-04 1.5084308e-03 3.3279365e+03) (4.7779606e-07 5.2339311e-07 -4.7951119e-02) (0.0000000e+00 0.0000000e+00 0.0000000e+00)) ((2.3777713e-03 3.6268089e-03 -1.1486607e-06) (2.3647790e-07 -1.5481795e-07 2.6535142e-08) (0.0000000e+00 0.0000000e+00 0.0000000e+00))
0.052         	((8.4126463e-05 -1.8241906e-03 3.3287815e+03) (4.7714224e-07 5.2425219e-07 -4.7932032e-02) (0.0000000e+00 0.0000000e+00 0.0000000e+00)) ((-4.3909299e-03 2.0031959e-03 -1.1539126e-06) (2.3642365e-07 -1.5602690e-07 2.6989336e-08) (0.0000000e+00 0.0000000e+00 0.0000000e+00))
0.053         	((-1.0434844e-03 1.3801880e-03 3.3279261e+03) (4.7613743e-07 5.2507924e-07 -4.7913002e-02) (0.0000000e+00 0.0000000e+00 0.0000000e+00)) ((2.0180585e-03 4.0025282e-03 -1.1523871e-06) (2.3633156e-07 -1.5685477e-07 2.7456381e-08) (0.0000000e+00 0.0000000e+00 0.0000000e+00))
0.054         	((3.5197971e-04 -1.5483710e-03 3.3286517e+03) (4.7540589e-07 5.2573459e-07 -4.7894065e-02) (0.0000000e+00 0.0000000e+00 0.0000000e+00)) ((-3.8490744e-03 1.6619216e-03 -1.1570485e-06) (2.3635748e-07 -1.5815869e-07 2.7888737e-08) (0.0000000e+00 0.0000000e+00 0.0000000e+00))
0.055         	((-1.2563581e-03 9.2183570e-04 3.3279080e+03) (4.7448026e-07 5.2597416e-07 -4.7875175e-02) (0.0000000e+00 0.0000000e+00 0.0000000e+00)) ((1.2757848e-03 4.2782431e-03 -1.1519024e-06) (2.3607944e-07 -1.5925317e-07 2.8279604e-08) (0.0000000e+00 0.0000000e+00 0.0000000e+00))
0.056         	((3.5292498e-04 -1.1277803e-03 3.3285305e+03) (4.7299027e-07 5.2657917e-07 -4.7856364e-02) (0.0000000e+00 0.0000000e+00 0.0000000e+00)) ((-3.1724796e-03 1.7603458e-03 -1.1574137e-06) (2.3614035e-07 -1.6013093e-07 2.8709426e-08) (0.0000000e+00 0.0000000e+00 0.0000000e+00))
0.057         	((-1.0052892e-03 8.7515984e-04 3.3278844e+03) (4.7146581e-07 5.2704650e-07 -4.7837603e-02) (0.0000000e+00 0.0000000e+00 0.0000000e+00)) ((1.0278197e-03 3.9651903e-03 -1.1555880e-06) (2.3614394e-07 -1.6105078e-07 2.9132717e-08) (0.0000000e+00 0.0000000e+00 0.0000000e+00))
0.058         	((3.4711928e-04 -1.3227393e-03 3.3284152e+03) (4.7025198e-07 5.2705938e-07 -4.7818919e-02) (0.0000000e+00 0.0000000e+00 0.0000000e+00)) ((-3.2228890e-03 1.7610214e-03 -1.1581749e-06) (2.3594233e-07 -1.6214994e-07 2.9534806e-08) (0.0000000e+00 0.0000000e+00 0.0000000e+00))
0.059         	((-7.4696185e-04 1.0101843e-03 3.3278545e+03) (4.6893844e-07 5.2727966e-07 -4.7800282e-02) (0.0000000e+00 0.0000000e+00 0.0000000e+00)) ((9.9776788e-04 3.7007951e-03 -1.1581127e-06) (2.3589810e-07 -1.6325586e-07 2.9963880e-08) (0.0000000e+00 0.0000000e+00 0.0000000e+00))
0.06          	((1.5103826e-04 -1.2908052e-03 3.3283067e+03) (4.6755900e-07 5.2718349e-07 -4.7781717e-02) (0.0000000e+00 0.0000000e+00 0.0000000e+00)) ((-3.0656460e-03 2.0269841e-03 -1.1560678e-06) (2.3574928e-07 -1.6429183e-07 3.0364223e-08) (0.0000000e+00 0.0000000e+00 0.0000000e+00))
0.061         	((-3.5743519e-04 9.3721813e-04 3.3278188e+03) (4.6651526e-07 5.2692536e-07 -4.7763195e-02) (0.0000000e+00 0.0000000e+00 0.0000000e+00)) ((8.4158542e-04 3.2232419e-03 -1.1626918e-06) (2.3560109e-07 -1.6556651e-07 3.0756532e-08) (0.0000000e+00 0.0000000e+00 0.0000000e+00))
0.062         	((-5.3047070e-04 -1.1222820e-03 3.3282027e+03) (4.6485896e-07 5.2678369e-07 -4.7744733e-02) (0.0000000e+00 0.0000000e+00 0.0000000e+00)) ((-2.7464332e-03 3.0011922e-03 -1.1569837e-06) (2.3560415e-07 -1.6621484e-07 3.1172014e-08) (0.0000000e+00 0.0000000e+00 0.0000000e+00))
0.063         	((1.0219854e-04 6.8777347e-04 3.3277795e+03) (4.6394348e-07 5.2627449e-07 -4.7726310e-02) (0.0000000e+00 0.0000000e+00 0.0000000e+00)) ((4.0837767e-04 2.5925690e-03 -1.1607445e-06) (2.3536375e-07 -1.6751995e-07 3.1558031e-08) (0.0000000e+00 0.0000000e+00 0.0000000e+00))
0.064         	((-6.0410428e-04 -9.2838224e-04 3.3281035e+03) (4.6299940e-07 5.2560261e-07 -4.7707941e-02) (0.0000000e+00 0.0000000e+00 0.0000000e+00)) ((-2.3853245e-03 3.1432630e-03 -1.1636494e-06) (2.3523495e-07 -1.6872382e-07 3.1943330e-08) (0.0000000e+00 0.0000000e+00 0.0000000e+00))
0.065         	((4.5726201e-04 5.4272654e-04 3.3277359e+03) (4.6183416e-07 5.2490255e-07 -4.7689604e-02) (0.0000000e+00 0.0000000e+00 0.0000000e+00)) ((1.3489904e-04 2.1104362e-03 -1.1630101e-06) (2.3505577e-07 -1.6991625e-07 3.2351917e-08) (0.0000000e+00 0.0000000e+00 0.0000000e+00))
0.066         	((-1.2603762e-03 -8.5238252e-04 3.3280087e+03) (4.6035571e-07 5.2395153e-07 -4.7671321e-02) (0.0000000e+00 0.0000000e+00 0.0000000e+00)) ((-2.1475947e-03 4.1487360e-03 -1.1658779e-06) (2.3493692e-07 -1.7053534e-07 3.2728674e-08) (0.0000000e+00 0.0000000e+00 0.0000000e+00))
0.067         	((1.1661425e-03 4.2731274e-04 3.3276895e+03) (4.5944396e-07 5.2282583e-07 -4.7653071e-02) (0.0000000e+00 0.0000000e+00 0.0000000e+00)) ((-1.2056236e-04 1.1164858e-03 -1.1642885e-06) (2.3468114e-07 -1.7189097e-07 3.3101705e-08) (0.0000000e+00 0.0000000e+00 0.0000000e+00))
0.068         	((-1.7946029e-03 -6.7053301e-04 3.3279167e+03) (4.5805451e-07 5.2184236e-07 -4.7634868e-02) (0.0000000e+00 0.0000000e+00 0.0000000e+00)) ((-1.8773964e-03 4.9542974e-03 -1.1668828e-06) (2.3456305e-07 -1.7261875e-07 3.3500020e-08) (0.0000000e+00 0.0000000e+00 0.0000000e+00))
0.069         	((1.5854930e-03 2.4179422e-04 3.3276399e+03) (4.5713363e-07 5.2070123e-07 -4.7616696e-02) (0.0000000e+00 0.0000000e+00 0.0000000e+00)) ((-3.5104189e-04 5.0343260e-04 -1.1636671e-06) (2.3433669e-07 -1.7389944e-07 3.3888986e-08) (0.0000000e+00 0.0000000e+00 0.0000000e+00))
0.07          	((-2.1334060e-03 -6.0038384e-04 3.3278287e+03) (4.5569069e-07 5.1957968e-07 -4.7598567e-02) (0.0000000e+00 0.0000000e+00 0.0000000e+00)) ((-1.7309869e-03 5.4217691e-03 -1.1681126e-06) (2.3416541e-07 -1.7470282e-07 3.4258317e-08) (0.0000000e+00 0.0000000e+00 0.0000000e+00))
0.071         	((1.3187950e-03 2.0149961e-04 3.3275874e+03) (4.5431226e-07 5.1847492e-07 -4.7580464e-02) (0.0000000e+00 0.0000000e+00 0.0000000e+00)) ((-4.3182818e-04 8.5633801e-04 -1.1650508e-06) (2.3399233e-07 -1.7552611e-07 3.4631687e-08) (0.0000000e+00 0.0000000e+00 0.0000000e+00))
0.072         	((-1.3132041e-03 -5.7700865e-04 3.3277426e+03) (4.5332905e-07 5.1734785e-07 -4.7562399e-02) (0.0000000e+00 0.0000000e+00 0.0000000e+00)) ((-1.6650041e-03 4.2898143e-03 -1.1670057e-06) (2.3381970e-07 -1.7686169e-07 3.5007510e-08) (0.0000000e+00 0.0000000e+00 0.0000000e+00))
0.073         	((6.3294486e-04 1.7437382e-04 3.3275331e+03) (4.5175975e-07 5.1621616e-07 -4.7544359e-02) (0.0000000e+00 0.0000000e+00 0.0000000e+00)) ((-5.3007886e-04 1.7929895e-03 -1.1666783e-06) (2.3360852e-07 -1.7758031e-07 3.5378605e-08) (0.0000000e+00 0.0000000e+00 0.0000000e+00))
0.074         	((-9.6275674e-04 -5.8067536e-04 3.3276592e+03) (4.5069066e-07 5.1500425e-07 -4.7526352e-02) (0.0000000e+00 0.0000000e+00 0.0000000e+00)) ((-1.5835947e-03 3.8197355e-03 -1.1675031e-06) (2.3343294e-07 -1.7879284e-07 3.5748872e-08) (0.0000000e+00 0.0000000e+00 0.0000000e+00))
0.075         	((5.2246891e-04 1.2394806e-04 3.3274761e+03) (4.4952908e-07 5.1372061e-07 -4.7508367e-02) (0.0000000e+00 0.0000000e+00 0.0000000e+00)) ((-6.2309265e-04 1.9088086e-03 -1.1684984e-06) (2.3322829e-07 -1.7991399e-07 3.6113231e-08) (0.0000000e+00 0.0000000e+00 0.0000000e+00))
0.076         	((-1.0682517e-03 -4.8999302e-04 3.3275781e+03) (4.4816832e-07 5.1241987e-07 -4.7490411e-02) (0.0000000e+00 0.0000000e+00 0.0000000e+00)) ((-1.4375332e-03 3.9782852e-03 -1.1687420e-06) (2.3310317e-07 -1.8083188e-07 3.6468359e-08) (0.0000000e+00 0.0000000e+00 0.0000000e+00))
0.077         	((6.7582433e-04 6.3854161e-05 3.3274176e+03) (4.4706838e-07 5.1105508e-07 -4.7472475e-02) (0.0000000e+00 0.0000000e+00 0.0000000e+00)) ((-7.3892638e-04 1.6780997e-03 -1.1691639e-06) (2.3291271e-07 -1.8197995e-07 3.6807550e-08) (0.0000000e+00 0.0000000e+00 0.0000000e+00))
0.078         	((-1.1265714e-03 -4.4031721e-04 3.3274992e+03) (4.4596645e-07 5.0966632e-07 -4.7454568e-02) (0.0000000e+00 0.0000000e+00 0.0000000e+00)) ((-1.3328176e-03 4.0319473e-03 -1.1707784e-06) (2.3276919e-07 -1.8307547e-07 3.7141405e-08) (0.0000000e+00 0.0000000e+00 0.0000000e+00))
0.079         	((5.4766309e-04 -3.3819978e-05 3.3273583e+03) (4.4479694e-07 5.0819239e-07 -4.7436679e-02) (0.0000000e+00 0.0000000e+00 0.0000000e+00)) ((-8.6555237e-04 1.8362881e-03 -1.1711583e-06) (2.3256725e-07 -1.8412887e-07 3.7478145e-08) (0.0000000e+00 0.0000000e+00 0.0000000e+00))
0.08          	((-1.2705239e-03 -3.8790287e-04 3.3274211e+03) (4.4345482e-07 5.0666407e-07 -4.7418814e-02) (0.0000000e+00 0.0000000e+00 0.0000000e+00)) ((-1.2250973e-03 4.1916416e-03 -1.1722077e-06) (2.3242221e-07 -1.8504972e-07 3.7809290e-08) (0.0000000e+00 0.0000000e+00 0.0000000e+00))
0.081         	((8.8744259e-04 -7.3559076e-05 3.3272979e+03) (4.4238301e-07 5.0506651e-07 -4.7400966e-02) (0.0000000e+00 0.0000000e+00 0.0000000e+00)) ((-9.5983717e-04 1.3543004e-03 -1.1725246e-06) (2.3221935e-07 -1.8632096e-07 3.8130959e-08) (0.0000000e+00 0.0000000e+00 0.0000000e+00))
0.082         	((-1.4556330e-03 -3.0982720e-04 3.3273447e+03) (4.4113691e-07 5.0345528e-07 -4.7383142e-02) (0.0000000e+00 0.0000000e+00 0.0000000e+00)) ((-1.1109262e-03 4.4431278e-03 -1.1738119e-06) (2.3209284e-07 -1.8737498e-07 3.8441342e-08) (0.0000000e+00 0.0000000e+00 0.0000000e+00))
0.083         	((7.8205360e-04 -1.7402133e-04 3.3272365e+03) (4.3988019e-07 5.0183522e-07 -4.7365330e-02) (0.0000000e+00 0.0000000e+00 0.0000000e+00)) ((-1.0758232e-03 1.4311767e-03 -1.1734543e-06) (2.3192372e-07 -1.8848376e-07 3.8766586e-08) (0.0000000e+00 0.0000000e+00 0.0000000e+00))
0.084         	((-1.3733191e-03 -2.9610016e-04 3.3272685e+03) (4.3856375e-07 5.0016262e-07 -4.7347536e-02) (0.0000000e+00 0.0000000e+00 0.0000000e+00)) ((-1.0741852e-03 4.3619870e-03 -1.1748827e-06) (2.3178021e-07 -1.8957704e-07 3.9079871e-08) (0.0000000e+00 0.0000000e+00 0.0000000e+00))
0.085         	((7.0348851e-04 -1.7416019e-04 3.3271747e+03) (4.3722321e-07 4.9844844e-07 -4.7329754e-02) (0.0000000e+00 0.0000000e+00 0.0000000e+00)) ((-1.0859055e-03 1.5103807e-03 -1.1756687e-06) (2.3162405e-07 -1.9071186e-07 3.9382345e-08) (0.0000000e+00 0.0000000e+00 0.0000000e+00))
0.086         	((-1.3939752e-03 -2.6895065e-04 3.3271940e+03) (4.3584494e-07 4.9674540e-07 -4.7311988e-02) (0.0000000e+00 0.0000000e+00 0.0000000e+00)) ((-1.0606784e-03 4.3307879e-03 -1.1771714e-06) (2.3150085e-07 -1.9180264e-07 3.9685813e-08) (0.0000000e+00 0.0000000e+00 0.0000000e+00))
0.087         	((6.3555114e-04 -1.8128449e-04 3.3271111e+03) (4.3442352e-07 4.9492922e-07 -4.7294229e-02) (0.0000000e+00 0.0000000e+00 0.0000000e+00)) ((-1.0647768e-03 1.5950464e-03 -1.1763664e-06) (2.3136330e-07 -1.9291491e-07 3.9963391e-08) (0.0000000e+00 0.0000000e+00 0.0000000e+00))
0.088         	((-1.3327910e-03 -3.0952956e-04 3.3271206e+03) (4.3289559e-07 4.9306341e-07 -4.7276483e-02) (0.0000000e+00 0.0000000e+00 0.0000000e+00)) ((-1.1219785e-03 4.2294321e-03 -1.1765594e-06) (2.3120930e-07 -1.9402997e-07 4.0240996e-08) (0.0000000e+00 0.0000000e+00 0.0000000e+00))
0.089         	((5.7753109e-04 -1.6796498e-04 3.3270476e+03) (4.3131522e-07 4.9118496e-07 -4.7258746e-02) (0.0000000e+00 0.0000000e+00 0.0000000e+00)) ((-1.0205036e-03 1.6916851e-03 -1.1776825e-06) (2.3109422e-07 -1.9516782e-07 4.0517335e-08) (0.0000000e+00 0.0000000e+00 0.0000000e+00))
0.09          	((-1.2454450e-03 -3.0040279e-04 3.3270487e+03) (4.2965481e-07 4.8923909e-07 -4.7241022e-02) (0.0000000e+00 0.0000000e+00 0.0000000e+00)) ((-1.1513691e-03 4.1039560e-03 -1.1774363e-06) (2.3096189e-07 -1.9630646e-07 4.0777989e-08) (0.0000000e+00 0.0000000e+00 0.0000000e+00))
0.091         	((4.4518350e-04 -1.2508400e-04 3.3269834e+03) (4.2793862e-07 4.8730227e-07 -4.7223305e-02) (0.0000000e+00 0.0000000e+00 0.0000000e+00)) ((-9.5846543e-04 1.8451512e-03 -1.1780722e-06) (2.3086953e-07 -1.9744069e-07 4.1031586e-08) (0.0000000e+00 0.0000000e+00 0.0000000e+00))
0.092         	((-1.1570890e-03 -3.2527399e-04 3.3269777e+03) (4.2622399e-07 4.8532114e-07 -4.7205600e-02) (0.0000000e+00 0.0000000e+00 0.0000000e+00)) ((-1.1989727e-03 3.9661140e-03 -1.1775199e-06) (2.3075787e-07 -1.9861873e-07 4.1279231e-08) (0.0000000e+00 0.0000000e+00 0.0000000e+00))
0.093         	((2.9534093e-04 -1.1318664e-04 3.3269187e+03) (4.2439930e-07 4.8328848e-07 -4.7187902e-02) (0.0000000e+00 0.0000000e+00 0.0000000e+00)) ((-9.1849408e-04 2.0181402e-03 -1.1774537e-06) (2.3068217e-07 -1.9975596e-07 4.1511008e-08) (0.0000000e+00 0.0000000e+00 0.0000000e+00))
0.094         	((-1.0428235e-03 -3.7375713e-04 3.3269069e+03) (4.2255834e-07 4.8110127e-07 -4.7170209e-02) (0.0000000e+00 0.0000000e+00 0.0000000e+00)) ((-1.2665180e-03 3.8139686e-03 -1.1840530e-06) (2.3051620e-07 -2.0095468e-07 4.1725273e-08) (0.0000000e+00 0.0000000e+00 0.0000000e+00))
0.095         	((1.6222047e-04 -8.2426446e-05 3.3268533e+03) (4.2070798e-07 4.7892195e-07 -4.7152517e-02) (0.0000000e+00 0.0000000e+00 0.0000000e+00)) ((-8.6532219e-04 2.1659432e-03 -1.1872004e-06) (2.3039093e-07 -2.0218791e-07 4.1938290e-08) (0.0000000e+00 0.0000000e+00 0.0000000e+00))
0.096         	((-9.5151796e-04 -3.8027148e-04 3.3268369e+03) (4.1869770e-07 4.7672227e-07 -4.7134829e-02) (0.0000000e+00 0.0000000e+00 0.0000000e+00)) ((-1.2988325e-03 3.6861666e-03 -1.1772084e-06) (2.3029473e-07 -2.0342594e-07 4.2150890e-08) (0.0000000e+00 0.0000000e+00 0.0000000e+00))
0.097         	((7.4265531e-05 -3.4124249e-05 3.3267872e+03) (4.1651486e-07 4.7446622e-07 -4.7117143e-02) (0.0000000e+00 0.0000000e+00 0.0000000e+00)) ((-8.1909241e-04 2.2882053e-03 -1.1848479e-06) (2.3023374e-07 -2.0461274e-07 4.2355988e-08) (0.0000000e+00 0.0000000e+00 0.0000000e+00))
0.098         	((-9.1475531e-04 -4.1060299e-04 3.3267675e+03) (4.1429923e-07 4.7208533e-07 -4.7099460e-02) (0.0000000e+00 0.0000000e+00 0.0000000e+00)) ((-1.3434271e-03 3.5988570e-03 -1.1871331e-06) (2.3013791e-07 -2.0583228e-07 4.2546779e-08) (0.0000000e+00 0.0000000e+00 0.0000000e+00))
0.099         	((5.7252384e-06 -1.6277091e-05 3.3267212e+03) (4.1200071e-07 4.6970744e-07 -4.7081776e-02) (0.0000000e+00 0.0000000e+00 0.0000000e+00)) ((-7.8714161e-04 2.3973392e-03 -1.1728399e-06) (2.3008047e-07 -2.0703933e-07 4.2725903e-08) (0.0000000e+00 0.0000000e+00 0.0000000e+00))
0.1           	((-8.5940505e-04 -4.1321831e-04 3.3266982e+03) (4.0970281e-07 4.6728336e-07 -4.7064092e-02) (0.0000000e+00 0.0000000e+00 0.0000000e+00)) ((-1.3650786e-03 3.4964780e-03 -1.1820211e-06) (2.3000791e-07 -2.0828609e-07 4.2898978e-08) (0.0000000e+00 0.0000000e+00 0.0000000e+00))
0.101         	((-5.9871108e-05 5.8042765e-06 3.3266550e+03) (4.0727815e-07 4.6472621e-07 -4.7046405e-02) (0.0000000e+00 0.0000000e+00 0.0000000e+00)) ((-7.7006496e-04 2.4953135e-03 -1.1850675e-06) (2.2993872e-07 -2.0951773e-07 4.3049760e-08) (0.0000000e+00 0.0000000e+00 0.0000000e+00))
0.102         	((-7.8983553e-04 -3.6441520e-04 3.3266294e+03) (4.0468777e-07 4.6217830e-07 -4.7028718e-02) (0.0000000e+00 0.0000000e+00 0.0000000e+00)) ((-1.3588758e-03 3.4064266e-03 -1.1796128e-06) (2.2985014e-07 -2.1075646e-07 4.3207146e-08) (0.0000000e+00 0.0000000e+00 0.0000000e+00))
0.103         	((-1.8303707e-04 8.8234583e-07 3.3265884e+03) (4.0199233e-07 4.5969206e-07 -4.7011027e-02) (0.0000000e+00 0.0000000e+00 0.0000000e+00)) ((-7.5378843e-04 2.6265812e-03 -1.1812163e-06) (2.2982619e-07 -2.1198172e-07 4.3373849e-08) (0.0000000e+00 0.0000000e+00 0.0000000e+00))