<?xml version="1.0"?>
<!-- foamStar Visualization using ParaView -->
<!--   model: Catenary Mooring SPAR case - ran on 07-Apr-2021 -->
<!--   mooring:  MoorDyn -->
<!--   time:  10 -->
<VTKFile type="PolyData" version="0.1">
  <PolyData>
    <Piece NumberOfPoints="31" NumberOfLines="30">
      <Points>
        <DataArray type="Float32" NumberOfComponents="3" format="ascii">
          15.96000 -0.03000 -5.00000
          15.42940 -0.04027 -5.01006
          14.89930 -0.01088 -5.01012
          14.36870 -0.02715 -5.01012
          13.83800 -0.03861 -5.01012
          13.30780 -0.01397 -5.01012
          12.77710 -0.02906 -5.01012
          12.24640 -0.04064 -5.01012
          11.71650 -0.01003 -5.01011
          11.18580 -0.02222 -5.00996
          10.65550 -0.02520 -4.98478
          10.12670 -0.00447 -4.94403
          9.59968 -0.02256 -4.88275
          9.07475 -0.03035 -4.80420
          8.55139 -0.00512 -4.71904
          8.03140 -0.02134 -4.61349
          7.51843 -0.03016 -4.47723
          7.00786 -0.00135 -4.33482
          6.49858 -0.01720 -4.18592
          6.00216 -0.03637 -3.99886
          5.51146 -0.00228 -3.79926
          5.01467 0.00016 -3.61222
          4.53208 -0.03263 -3.39354
          4.07149 -0.01364 -3.13032
          3.59863 0.00682 -2.88996
          3.12242 -0.01450 -2.65639
          2.68038 0.00375 -2.36302
          2.25450 0.01678 -2.04641
          1.79973 -0.02579 -1.77592
          1.35558 -0.02449 -1.48520
          0.96354 0.03672 -1.13257
        </DataArray>
      </Points>
      <Lines>
        <DataArray type="Int32" Name="connectivity" format="ascii">
          0 1
          1 2
          2 3
          3 4
          4 5
          5 6
          6 7
          7 8
          8 9
          9 10
          10 11
          11 12
          12 13
          13 14
          14 15
          15 16
          16 17
          17 18
          18 19
          19 20
          20 21
          21 22
          22 23
          23 24
          24 25
          25 26
          26 27
          27 28
          28 29
          29 30
        </DataArray>
        <DataArray type="Int32" Name="offsets" format="ascii">
          2 4 6 8 10 12 14 16 18 20 22 24 26 28 30 32 34 36 38 40 42 44 46 48 50 52 54 56 58 60
        </DataArray>
      </Lines>
      <CellData>
        <DataArray type="Float32" Name="Segment Tension" NumberOfComponents="1" format="ascii">
          1.449790e+01          1.449740e+01          1.444990e+01          1.433220e+01          1.417620e+01          1.389730e+01          1.365050e+01          1.338320e+01          1.316350e+01          1.291440e+01          1.265050e+01          1.232490e+01          1.208560e+01          1.190160e+01          1.170240e+01          1.149030e+01          1.133340e+01          1.116560e+01          1.101330e+01          1.101040e+01          1.098400e+01          1.094250e+01          1.118860e+01          1.150820e+01          1.169740e+01          1.190870e+01          1.240020e+01          1.275670e+01          1.335830e+01          1.426630e+01
        </DataArray>
      </CellData>
    </Piece>
    <Piece NumberOfPoints="31" NumberOfLines="30">
      <Points>
        <DataArray type="Float32" NumberOfComponents="3" format="ascii">
          -7.97000 13.85000 -5.00000
          -7.68917 13.39770 -5.01006
          -7.45493 12.91960 -5.01012
          -7.17898 12.46420 -5.01012
          -6.89367 12.01460 -5.01012
          -6.65380 11.53920 -5.01012
          -6.38506 11.07950 -5.01012
          -6.09823 10.63090 -5.01012
          -5.85293 10.15830 -5.01012
          -5.59541 9.69222 -5.01009
          -5.30944 9.24320 -4.99765
          -5.04627 8.78079 -4.97589
          -4.79442 8.31401 -4.92846
          -4.52475 7.86003 -4.85958
          -4.26426 7.40395 -4.77186
          -4.00102 6.95181 -4.67270
          -3.73699 6.50831 -4.54172
          -3.49864 6.05612 -4.39247
          -3.24472 5.61299 -4.24172
          -2.96951 5.19059 -4.07027
          -2.74104 4.75336 -3.86977
          -2.51270 4.31897 -3.66308
          -2.23480 3.92004 -3.44585
          -1.99306 3.51242 -3.20302
          -1.80624 3.08852 -2.94039
          -1.57627 2.69300 -2.66792
          -1.30165 2.33038 -2.39106
          -1.08372 1.94349 -2.09713
          -0.91831 1.54064 -1.79068
          -0.69742 1.17657 -1.47095
          -0.43364 0.84635 -1.14701
        </DataArray>
      </Points>
      <Lines>
        <DataArray type="Int32" Name="connectivity" format="ascii">
          0 1
          1 2
          2 3
          3 4
          4 5
          5 6
          6 7
          7 8
          8 9
          9 10
          10 11
          11 12
          12 13
          13 14
          14 15
          15 16
          16 17
          17 18
          18 19
          19 20
          20 21
          21 22
          22 23
          23 24
          24 25
          25 26
          26 27
          27 28
          28 29
          29 30
        </DataArray>
        <DataArray type="Int32" Name="offsets" format="ascii">
          2 4 6 8 10 12 14 16 18 20 22 24 26 28 30 32 34 36 38 40 42 44 46 48 50 52 54 56 58 60
        </DataArray>
      </Lines>
      <CellData>
        <DataArray type="Float32" Name="Segment Tension" NumberOfComponents="1" format="ascii">
          0          0          0          0          0          0          0          0          0          0          7.872600e+00          9.324810e+00          9.686240e+00          9.897270e+00          1.010460e+01          1.029970e+01          1.052960e+01          1.077670e+01          1.101060e+01          1.133000e+01          1.169410e+01          1.210730e+01          1.264120e+01          1.329170e+01          1.409800e+01          1.504090e+01          1.618310e+01          1.749740e+01          1.902660e+01          2.075780e+01
        </DataArray>
      </CellData>
    </Piece>
    <Piece NumberOfPoints="31" NumberOfLines="30">
      <Points>
        <DataArray type="Float32" NumberOfComponents="3" format="ascii">
          -8.01000 -13.85000 -5.00000
          -7.76038 -13.38060 -5.01006
          -7.46403 -12.93920 -5.01012
          -7.20599 -12.47420 -5.01012
          -6.96347 -12.00110 -5.01012
          -6.67097 -11.55700 -5.01012
          -6.40407 -11.09710 -5.01012
          -6.16215 -10.62360 -5.01012
          -5.88222 -10.17150 -5.01011
          -5.60419 -9.71830 -5.00198
          -5.35556 -9.24892 -4.97666
          -5.09582 -8.78649 -4.93816
          -4.81506 -8.33782 -4.88657
          -4.54808 -7.88376 -4.81331
          -4.30393 -7.42249 -4.71115
          -4.04883 -6.96857 -4.60290
          -3.76718 -6.53447 -4.48011
          -3.50949 -6.09412 -4.32997
          -3.28419 -5.63940 -4.17086
          -3.02736 -5.20482 -4.00344
          -2.75117 -4.79714 -3.80253
          -2.52634 -4.36671 -3.58568
          -2.29784 -3.93255 -3.38038
          -2.02569 -3.53897 -3.14826
          -1.79795 -3.13800 -2.88329
          -1.59255 -2.71949 -2.62735
          -1.33843 -2.33631 -2.36005
          -1.10889 -1.95872 -2.06410
          -0.92603 -1.56014 -1.76320
          -0.70140 -1.19023 -1.45408
          -0.45489 -0.84519 -1.13309
        </DataArray>
      </Points>
      <Lines>
        <DataArray type="Int32" Name="connectivity" format="ascii">
          0 1
          1 2
          2 3
          3 4
          4 5
          5 6
          6 7
          7 8
          8 9
          9 10
          10 11
          11 12
          12 13
          13 14
          14 15
          15 16
          16 17
          17 18
          18 19
          19 20
          20 21
          21 22
          22 23
          23 24
          24 25
          25 26
          26 27
          27 28
          28 29
          29 30
        </DataArray>
        <DataArray type="Int32" Name="offsets" format="ascii">
          2 4 6 8 10 12 14 16 18 20 22 24 26 28 30 32 34 36 38 40 42 44 46 48 50 52 54 56 58 60
        </DataArray>
      </Lines>
      <CellData>
        <DataArray type="Float32" Name="Segment Tension" NumberOfComponents="1" format="ascii">
          0          0          0          0          0          0          0          0          0          0          0          0          0          0          0          3.593370e+00          4.560250e+00          4.721350e+00          4.853650e+00          5.074480e+00          5.362390e+00          5.690100e+00          6.009400e+00          6.434110e+00          6.823280e+00          7.146320e+00          7.512200e+00          7.712230e+00          7.863470e+00          7.964810e+00
        </DataArray>
      </CellData>
    </Piece>
    <Piece NumberOfPoints="11" NumberOfLines="10">
      <Points>
        <DataArray type="Float32" NumberOfComponents="3" format="ascii">
          0.96354 0.03672 -1.13257
          0.88451 -0.00388 -1.05191
          0.79637 -0.04455 -0.98136
          0.70063 -0.06659 -0.91244
          0.61360 -0.10029 -0.83702
          0.53379 -0.13223 -0.75328
          0.45376 -0.14002 -0.66423
          0.36979 -0.16238 -0.58162
          0.28726 -0.18558 -0.49797
          0.20644 -0.20560 -0.41209
          0.13100 -0.22600 -0.32155
        </DataArray>
      </Points>
      <Lines>
        <DataArray type="Int32" Name="connectivity" format="ascii">
          0 1
          1 2
          2 3
          3 4
          4 5
          5 6
          6 7
          7 8
          8 9
          9 10
        </DataArray>
        <DataArray type="Int32" Name="offsets" format="ascii">
          2 4 6 8 10 12 14 16 18 20
        </DataArray>
      </Lines>
      <CellData>
        <DataArray type="Float32" Name="Segment Tension" NumberOfComponents="1" format="ascii">
          1.579360e+01          1.578120e+01          1.603940e+01          1.650910e+01          1.706460e+01          0          0          0          0          0
        </DataArray>
      </CellData>
    </Piece>
    <Piece NumberOfPoints="11" NumberOfLines="10">
      <Points>
        <DataArray type="Float32" NumberOfComponents="3" format="ascii">
          0.96354 0.03672 -1.13257
          0.86068 0.05730 -1.07429
          0.77966 0.07682 -0.98795
          0.69657 0.08938 -0.90229
          0.61415 0.09692 -0.81539
          0.52309 0.08485 -0.73818
          0.43502 0.07718 -0.65703
          0.35523 0.09169 -0.56858
          0.28052 0.13144 -0.48350
          0.20867 0.18175 -0.40161
          0.13100 0.22600 -0.32155
        </DataArray>
      </Points>
      <Lines>
        <DataArray type="Int32" Name="connectivity" format="ascii">
          0 1
          1 2
          2 3
          3 4
          4 5
          5 6
          6 7
          7 8
          8 9
          9 10
        </DataArray>
        <DataArray type="Int32" Name="offsets" format="ascii">
          2 4 6 8 10 12 14 16 18 20
        </DataArray>
      </Lines>
      <CellData>
        <DataArray type="Float32" Name="Segment Tension" NumberOfComponents="1" format="ascii">
          4.616760e+00          5.003750e+00          5.482450e+00          5.955900e+00          6.099310e+00          6.183450e+00          6.213350e+00          6.478450e+00          6.898440e+00          7.259230e+00
        </DataArray>
      </CellData>
    </Piece>
    <Piece NumberOfPoints="11" NumberOfLines="10">
      <Points>
        <DataArray type="Float32" NumberOfComponents="3" format="ascii">
          -0.43364 0.84635 -1.14701
          -0.37275 0.79435 -1.05763
          -0.33431 0.71289 -0.97834
          -0.28614 0.62915 -0.90715
          -0.24368 0.55736 -0.82087
          -0.20327 0.50481 -0.72085
          -0.16144 0.44842 -0.62353
          -0.10611 0.38722 -0.53639
          -0.03272 0.32390 -0.46565
          0.05008 0.26677 -0.40022
          0.13100 0.22600 -0.32155
        </DataArray>
      </Points>
      <Lines>
        <DataArray type="Int32" Name="connectivity" format="ascii">
          0 1
          1 2
          2 3
          3 4
          4 5
          5 6
          6 7
          7 8
          8 9
          9 10
        </DataArray>
        <DataArray type="Int32" Name="offsets" format="ascii">
          2 4 6 8 10 12 14 16 18 20
        </DataArray>
      </Lines>
      <CellData>
        <DataArray type="Float32" Name="Segment Tension" NumberOfComponents="1" format="ascii">
          2.284180e+00          2.582580e+00          2.934160e+00          3.299070e+00          3.506470e+00          3.742680e+00          3.974080e+00          4.293020e+00          4.590900e+00          4.953480e+00
        </DataArray>
      </CellData>
    </Piece>
    <Piece NumberOfPoints="11" NumberOfLines="10">
      <Points>
        <DataArray type="Float32" NumberOfComponents="3" format="ascii">
          -0.43364 0.84635 -1.14701
          -0.40902 0.76101 -1.06631
          -0.38579 0.67220 -0.98903
          -0.37127 0.58708 -0.90570
          -0.36102 0.49469 -0.82981
          -0.35369 0.40118 -0.75495
          -0.34757 0.32255 -0.66451
          -0.33468 0.24574 -0.57321
          -0.31638 0.15805 -0.49336
          -0.29063 0.08035 -0.40561
          -0.26100 0.00000 -0.32155
        </DataArray>
      </Points>
      <Lines>
        <DataArray type="Int32" Name="connectivity" format="ascii">
          0 1
          1 2
          2 3
          3 4
          4 5
          5 6
          6 7
          7 8
          8 9
          9 10
        </DataArray>
        <DataArray type="Int32" Name="offsets" format="ascii">
          2 4 6 8 10 12 14 16 18 20
        </DataArray>
      </Lines>
      <CellData>
        <DataArray type="Float32" Name="Segment Tension" NumberOfComponents="1" format="ascii">
          2.380180e+01          2.395540e+01          2.421110e+01          2.387540e+01          2.343330e+01          2.321900e+01          2.340820e+01          2.344800e+01          2.381800e+01          2.403360e+01
        </DataArray>
      </CellData>
    </Piece>
    <Piece NumberOfPoints="11" NumberOfLines="10">
      <Points>
        <DataArray type="Float32" NumberOfComponents="3" format="ascii">
          -0.45489 -0.84519 -1.13309
          -0.42226 -0.77262 -1.04326
          -0.39346 -0.69121 -0.95993
          -0.37467 -0.59916 -0.88528
          -0.35935 -0.50771 -0.80910
          -0.34827 -0.42249 -0.72534
          -0.34924 -0.32258 -0.65888
          -0.34552 -0.22640 -0.58722
          -0.31508 -0.15759 -0.49374
          -0.29275 -0.08170 -0.40351
          -0.26100 0.00000 -0.32155
        </DataArray>
      </Points>
      <Lines>
        <DataArray type="Int32" Name="connectivity" format="ascii">
          0 1
          1 2
          2 3
          3 4
          4 5
          5 6
          6 7
          7 8
          8 9
          9 10
        </DataArray>
        <DataArray type="Int32" Name="offsets" format="ascii">
          2 4 6 8 10 12 14 16 18 20
        </DataArray>
      </Lines>
      <CellData>
        <DataArray type="Float32" Name="Segment Tension" NumberOfComponents="1" format="ascii">
          5.837620e+00          5.762090e+00          5.539020e+00          5.258790e+00          4.984440e+00          4.787040e+00          4.579540e+00          4.605970e+00          4.912240e+00          5.210490e+00
        </DataArray>
      </CellData>
    </Piece>
    <Piece NumberOfPoints="11" NumberOfLines="10">
      <Points>
        <DataArray type="Float32" NumberOfComponents="3" format="ascii">
          -0.45489 -0.84519 -1.13309
          -0.38953 -0.79025 -1.04876
          -0.33926 -0.70539 -0.98042
          -0.31183 -0.61508 -0.90631
          -0.26399 -0.57041 -0.80573
          -0.21870 -0.50616 -0.71507
          -0.14941 -0.45535 -0.63129
          -0.08009 -0.38127 -0.56720
          -0.00493 -0.33757 -0.48449
          0.05991 -0.27725 -0.40352
          0.13100 -0.22600 -0.32155
        </DataArray>
      </Points>
      <Lines>
        <DataArray type="Int32" Name="connectivity" format="ascii">
          0 1
          1 2
          2 3
          3 4
          4 5
          5 6
          6 7
          7 8
          8 9
          9 10
        </DataArray>
        <DataArray type="Int32" Name="offsets" format="ascii">
          2 4 6 8 10 12 14 16 18 20
        </DataArray>
      </Lines>
      <CellData>
        <DataArray type="Float32" Name="Segment Tension" NumberOfComponents="1" format="ascii">
          1.950230e+00          1.778500e+00          1.700760e+00          1.819270e+00          2.038610e+00          2.349270e+00          2.675800e+00          3.090320e+00          3.456100e+00          3.868260e+00
        </DataArray>
      </CellData>
    </Piece>
  </PolyData>
</VTKFile>